TITLE = "NODEELEMENT"
VARIABLES = "X", "Y", "Z"
ZONE N=    1098, E=    1012, F=FEPOINT, ET=QUADRILATERAL
 2.913e+002  0.000e+000  2.500e-001
 2.935e+002  0.000e+000  1.369e+000
 2.950e+002  0.000e+000  3.040e+000
 2.954e+002  0.000e+000  5.367e+000
 2.954e+002  0.000e+000  8.030e+000
 2.950e+002  0.000e+000  1.254e+001
 2.950e+002  0.000e+000  1.716e+001
 2.950e+002  0.000e+000  2.178e+001
 2.950e+002  0.000e+000  2.639e+001
 2.950e+002  0.000e+000  3.100e+001
 2.901e+002  0.000e+000  1.626e-001
 2.925e+002  1.376e+000  1.451e+000
 2.937e+002  1.720e+000  3.229e+000
 2.941e+002  2.041e+000  5.518e+000
 2.942e+002  2.357e+000  8.030e+000
 2.941e+002  2.513e+000  1.255e+001
 2.942e+002  2.510e+000  1.686e+001
 2.942e+002  2.479e+000  2.124e+001
 2.943e+002  2.573e+000  2.562e+001
 2.946e+002  2.797e+000  2.996e+001
 2.888e+002  0.000e+000  8.257e-002
 2.914e+002  2.511e+000  1.377e+000
 2.925e+002  3.357e+000  3.306e+000
 2.928e+002  4.046e+000  5.604e+000
 2.929e+002  4.700e+000  8.030e+000
 2.932e+002  4.913e+000  1.245e+001
 2.932e+002  4.936e+000  1.652e+001
 2.933e+002  4.877e+000  2.070e+001
 2.935e+002  5.064e+000  2.489e+001
 2.940e+002  5.510e+000  2.897e+001
 2.876e+002  0.000e+000  1.750e-002
 2.899e+002  3.233e+000  1.047e+000
 2.910e+002  4.828e+000  3.157e+000
 2.914e+002  5.979e+000  5.559e+000
 2.915e+002  7.015e+000  8.030e+000
 2.920e+002  7.089e+000  1.216e+001
 2.921e+002  7.193e+000  1.612e+001
 2.921e+002  7.115e+000  2.015e+001
 2.925e+002  7.391e+000  2.420e+001
 2.932e+002  8.056e+000  2.809e+001
 2.864e+002  0.000e+000 -2.574e-002
 2.884e+002  3.662e+000  6.014e-001
 2.894e+002  6.087e+000  2.752e+000
 2.898e+002  7.806e+000  5.342e+000
 2.900e+002  9.281e+000  8.030e+000
 2.905e+002  8.935e+000  1.159e+001
 2.905e+002  9.202e+000  1.562e+001
 2.906e+002  9.114e+000  1.959e+001
 2.910e+002  9.471e+000  2.360e+001
 2.918e+002  1.035e+001  2.737e+001
 2.852e+002  0.000e+000 -4.704e-002
 2.867e+002  3.997e+000  2.426e-001
 2.877e+002  7.169e+000  2.256e+000
 2.881e+002  9.493e+000  5.027e+000
 2.884e+002  1.143e+001  8.030e+000
 2.886e+002  1.049e+001  1.086e+001
 2.887e+002  1.096e+001  1.508e+001
 2.887e+002  1.087e+001  1.905e+001
 2.891e+002  1.127e+001  2.308e+001
 2.899e+002  1.232e+001  2.685e+001
 2.839e+002  0.000e+000 -5.070e-002
 2.851e+002  4.328e+000  4.262e-002
 2.859e+002  8.122e+000  1.831e+000
 2.863e+002  1.101e+001  4.712e+000
 2.866e+002  1.340e+001  8.030e+000
 2.866e+002  1.193e+001  1.030e+001
 2.867e+002  1.257e+001  1.464e+001
 2.867e+002  1.246e+001  1.859e+001
 2.870e+002  1.285e+001  2.262e+001
 2.876e+002  1.398e+001  2.643e+001
 2.827e+002  0.000e+000 -4.115e-002
 2.835e+002  4.660e+000 -3.549e-002
 2.841e+002  8.981e+000  1.492e+000
 2.844e+002  1.239e+001  4.429e+000
 2.846e+002  1.517e+001  8.030e+000
 2.845e+002  1.335e+001  1.002e+001
 2.846e+002  1.408e+001  1.436e+001
 2.846e+002  1.395e+001  1.823e+001
 2.848e+002  1.430e+001  2.220e+001
 2.852e+002  1.542e+001  2.599e+001
 2.815e+002  0.000e+000 -2.278e-002
 2.819e+002  4.991e+000 -3.236e-002
 2.822e+002  9.777e+000  1.210e+000
 2.823e+002  1.366e+001  4.168e+000
 2.825e+002  1.681e+001  8.030e+000
 2.824e+002  1.476e+001  9.938e+000
 2.824e+002  1.553e+001  1.419e+001
 2.824e+002  1.536e+001  1.794e+001
 2.825e+002  1.566e+001  2.180e+001
 2.827e+002  1.671e+001  2.551e+001
 2.803e+002  0.000e+000  2.355e-020
 2.803e+002  5.322e+000  1.137e-002
 2.803e+002  1.054e+001  9.570e-001
 2.803e+002  1.489e+001  3.918e+000
 2.803e+002  1.838e+001  8.030e+000
 2.803e+002  1.616e+001  9.950e+000
 2.803e+002  1.695e+001  1.407e+001
 2.803e+002  1.675e+001  1.768e+001
 2.803e+002  1.698e+001  2.141e+001
 2.803e+002  1.792e+001  2.500e+001
 2.803e+002  2.249e+000 -1.366e-003
 2.803e+002  4.497e+000 -1.113e-004
 2.803e+002  6.744e+000  8.337e-002
 2.803e+002  8.966e+000  4.284e-001
 2.803e+002  1.109e+001  1.171e+000
 2.803e+002  1.299e+001  2.361e+000
 2.803e+002  1.456e+001  3.971e+000
 2.803e+002  1.570e+001  5.909e+000
 2.803e+002  1.645e+001  8.030e+000
 2.803e+002  1.665e+001  9.731e+000
 2.803e+002  1.676e+001  1.144e+001
 2.803e+002  1.680e+001  1.315e+001
 2.803e+002  1.680e+001  1.487e+001
 2.803e+002  1.680e+001  1.658e+001
 2.803e+002  1.680e+001  1.829e+001
 2.803e+002  1.684e+001  2.000e+001
 2.803e+002  1.699e+001  2.171e+001
 2.803e+002  1.734e+001  2.339e+001
 2.775e+002  0.000e+000  0.000e+000
 2.775e+002  2.415e+000 -9.254e-004
 2.776e+002  4.827e+000  6.264e-004
 2.776e+002  7.236e+000  4.505e-002
 2.776e+002  9.624e+000  2.861e-001
 2.777e+002  1.193e+001  9.191e-001
 2.777e+002  1.402e+001  2.046e+000
 2.778e+002  1.575e+001  3.690e+000
 2.778e+002  1.697e+001  5.748e+000
 2.778e+002  1.770e+001  8.030e+000
 2.778e+002  1.791e+001  9.732e+000
 2.778e+002  1.800e+001  1.144e+001
 2.778e+002  1.802e+001  1.314e+001
 2.778e+002  1.803e+001  1.485e+001
 2.778e+002  1.802e+001  1.656e+001
 2.778e+002  1.802e+001  1.827e+001
 2.778e+002  1.808e+001  1.998e+001
 2.778e+002  1.824e+001  2.168e+001
 2.778e+002  1.855e+001  2.336e+001
 2.777e+002  1.901e+001  2.500e+001
 2.748e+002  0.000e+000  0.000e+000
 2.748e+002  2.573e+000 -5.376e-004
 2.749e+002  5.142e+000  1.144e-003
 2.749e+002  7.706e+000  1.333e-002
 2.750e+002  1.025e+001  1.614e-001
 2.751e+002  1.273e+001  6.864e-001
 2.752e+002  1.501e+001  1.749e+000
 2.753e+002  1.690e+001  3.420e+000
 2.754e+002  1.819e+001  5.594e+000
 2.754e+002  1.892e+001  8.030e+000
 2.754e+002  1.912e+001  9.731e+000
 2.753e+002  1.918e+001  1.143e+001
 2.753e+002  1.919e+001  1.314e+001
 2.753e+002  1.920e+001  1.484e+001
 2.753e+002  1.919e+001  1.654e+001
 2.753e+002  1.919e+001  1.825e+001
 2.753e+002  1.926e+001  1.995e+001
 2.753e+002  1.942e+001  2.165e+001
 2.753e+002  1.969e+001  2.333e+001
 2.752e+002  2.005e+001  2.500e+001
 2.721e+002  0.000e+000  0.000e+000
 2.721e+002  2.715e+000 -2.550e-004
 2.722e+002  5.426e+000  1.224e-003
 2.722e+002  8.131e+000 -5.227e-003
 2.723e+002  1.082e+001  7.205e-002
 2.725e+002  1.346e+001  4.930e-001
 2.726e+002  1.591e+001  1.485e+000
 2.728e+002  1.795e+001  3.174e+000
 2.729e+002  1.932e+001  5.455e+000
 2.729e+002  2.006e+001  8.030e+000
 2.729e+002  2.020e+001  9.726e+000
 2.728e+002  2.025e+001  1.143e+001
 2.728e+002  2.026e+001  1.313e+001
 2.728e+002  2.026e+001  1.483e+001
 2.728e+002  2.026e+001  1.653e+001
 2.728e+002  2.026e+001  1.823e+001
 2.728e+002  2.032e+001  1.993e+001
 2.728e+002  2.047e+001  2.163e+001
 2.728e+002  2.070e+001  2.331e+001
 2.727e+002  2.097e+001  2.500e+001
 2.694e+002  0.000e+000  0.000e+000
 2.694e+002  2.837e+000 -9.711e-005
 2.695e+002  5.671e+000  8.247e-004
 2.695e+002  8.497e+000 -8.556e-003
 2.696e+002  1.131e+001  2.559e-002
 2.698e+002  1.409e+001  3.497e-001
 2.700e+002  1.670e+001  1.264e+000
 2.702e+002  1.888e+001  2.958e+000
 2.703e+002  2.032e+001  5.335e+000
 2.703e+002  2.109e+001  8.030e+000
 2.703e+002  2.111e+001  9.716e+000
 2.703e+002  2.118e+001  1.142e+001
 2.702e+002  2.118e+001  1.312e+001
 2.702e+002  2.117e+001  1.482e+001
 2.702e+002  2.117e+001  1.652e+001
 2.702e+002  2.117e+001  1.822e+001
 2.702e+002  2.123e+001  1.992e+001
 2.702e+002  2.135e+001  2.161e+001
 2.702e+002  2.153e+001  2.331e+001
 2.700e+002  2.173e+001  2.500e+001
 2.667e+002  0.000e+000  0.000e+000
 2.667e+002  2.942e+000 -2.443e-005
 2.668e+002  5.881e+000  2.376e-004
 2.668e+002  8.812e+000 -3.551e-003
 2.670e+002  1.173e+001  7.993e-003
 2.671e+002  1.462e+001  2.462e-001
 2.674e+002  1.737e+001  1.078e+000
 2.676e+002  1.969e+001  2.765e+000
 2.677e+002  2.119e+001  5.230e+000
 2.677e+002  2.199e+001  8.030e+000
 2.676e+002  2.186e+001  9.705e+000
 2.676e+002  2.195e+001  1.141e+001
 2.676e+002  2.195e+001  1.311e+001
 2.676e+002  2.195e+001  1.481e+001
 2.676e+002  2.195e+001  1.651e+001
 2.676e+002  2.195e+001  1.821e+001
 2.676e+002  2.199e+001  1.991e+001
 2.676e+002  2.208e+001  2.161e+001
 2.675e+002  2.221e+001  2.330e+001
 2.674e+002  2.236e+001  2.500e+001
 2.640e+002  0.000e+000  0.000e+000
 2.640e+002  3.032e+000  7.822e-006
 2.641e+002  6.061e+000 -2.182e-004
 2.641e+002  9.084e+000  2.018e-003
 2.643e+002  1.210e+001  2.563e-003
 2.645e+002  1.508e+001  1.688e-001
 2.647e+002  1.796e+001  9.117e-001
 2.650e+002  2.039e+001  2.584e+000
 2.651e+002  2.193e+001  5.134e+000
 2.651e+002  2.273e+001  8.030e+000
 2.650e+002  2.250e+001  9.698e+000
 2.650e+002  2.261e+001  1.141e+001
 2.650e+002  2.260e+001  1.311e+001
 2.649e+002  2.259e+001  1.480e+001
 2.650e+002  2.260e+001  1.651e+001
 2.649e+002  2.260e+001  1.821e+001
 2.649e+002  2.262e+001  1.991e+001
 2.649e+002  2.268e+001  2.160e+001
 2.648e+002  2.278e+001  2.330e+001
 2.647e+002  2.289e+001  2.500e+001
 2.613e+002  0.000e+000  0.000e+000
 2.613e+002  3.110e+000  2.316e-005
 2.614e+002  6.217e+000 -4.223e-004
 2.614e+002  9.318e+000  4.601e-003
 2.616e+002  1.241e+001 -1.178e-005
 2.618e+002  1.548e+001  1.086e-001
 2.621e+002  1.846e+001  7.578e-001
 2.623e+002  2.101e+001  2.410e+000
 2.624e+002  2.257e+001  5.040e+000
 2.624e+002  2.331e+001  8.030e+000
 2.623e+002  2.305e+001  9.697e+000
 2.623e+002  2.315e+001  1.141e+001
 2.623e+002  2.315e+001  1.311e+001
 2.623e+002  2.314e+001  1.480e+001
 2.623e+002  2.314e+001  1.650e+001
 2.623e+002  2.314e+001  1.820e+001
 2.623e+002  2.316e+001  1.990e+001
 2.622e+002  2.320e+001  2.160e+001
 2.622e+002  2.326e+001  2.330e+001
 2.620e+002  2.335e+001  2.500e+001
 2.586e+002  0.000e+000  0.000e+000
 2.586e+002  3.176e+000  2.640e-005
 2.586e+002  6.351e+000 -4.362e-004
 2.587e+002  9.520e+000  4.847e-003
 2.589e+002  1.268e+001 -7.867e-004
 2.591e+002  1.583e+001  6.316e-002
 2.594e+002  1.890e+001  6.164e-001
 2.596e+002  2.155e+001  2.242e+000
 2.597e+002  2.311e+001  4.952e+000
 2.597e+002  2.375e+001  8.030e+000
 2.596e+002  2.352e+001  9.702e+000
 2.596e+002  2.360e+001  1.141e+001
 2.596e+002  2.360e+001  1.311e+001
 2.596e+002  2.359e+001  1.481e+001
 2.596e+002  2.359e+001  1.651e+001
 2.596e+002  2.359e+001  1.820e+001
 2.596e+002  2.360e+001  1.990e+001
 2.595e+002  2.362e+001  2.160e+001
 2.595e+002  2.367e+001  2.330e+001
 2.593e+002  2.373e+001  2.500e+001
 2.559e+002  0.000e+000  0.000e+000
 2.559e+002  3.234e+000  2.174e-005
 2.559e+002  6.465e+000 -3.283e-004
 2.560e+002  9.693e+000  3.588e-003
 2.562e+002  1.291e+001 -3.809e-004
 2.564e+002  1.612e+001  3.050e-002
 2.567e+002  1.927e+001  4.889e-001
 2.569e+002  2.201e+001  2.082e+000
 2.570e+002  2.356e+001  4.869e+000
 2.570e+002  2.408e+001  8.030e+000
 2.569e+002  2.391e+001  9.709e+000
 2.569e+002  2.396e+001  1.141e+001
 2.569e+002  2.396e+001  1.311e+001
 2.569e+002  2.396e+001  1.481e+001
 2.569e+002  2.396e+001  1.651e+001
 2.569e+002  2.396e+001  1.821e+001
 2.569e+002  2.396e+001  1.990e+001
 2.568e+002  2.398e+001  2.160e+001
 2.567e+002  2.401e+001  2.330e+001
 2.566e+002  2.405e+001  2.500e+001
 2.532e+002  0.000e+000  0.000e+000
 2.532e+002  3.283e+000  1.337e-005
 2.532e+002  6.564e+000 -1.670e-004
 2.533e+002  9.842e+000  1.657e-003
 2.534e+002  1.311e+001  5.864e-004
 2.537e+002  1.637e+001  8.607e-003
 2.539e+002  1.959e+001  3.765e-001
 2.542e+002  2.242e+001  1.933e+000
 2.543e+002  2.392e+001  4.795e+000
 2.543e+002  2.431e+001  8.030e+000
 2.542e+002  2.422e+001  9.718e+000
 2.541e+002  2.425e+001  1.142e+001
 2.541e+002  2.425e+001  1.312e+001
 2.541e+002  2.425e+001  1.481e+001
 2.541e+002  2.425e+001  1.651e+001
 2.541e+002  2.425e+001  1.821e+001
 2.541e+002  2.425e+001  1.991e+001
 2.541e+002  2.426e+001  2.161e+001
 2.540e+002  2.428e+001  2.330e+001
 2.539e+002  2.431e+001  2.500e+001
 2.504e+002  0.000e+000  0.000e+000
 2.505e+002  3.326e+000  5.476e-006
 2.505e+002  6.650e+000 -2.078e-005
 2.506e+002  9.971e+000 -1.170e-004
 2.507e+002  1.329e+001  1.496e-003
 2.509e+002  1.659e+001 -4.514e-003
 2.512e+002  1.987e+001  2.805e-001
 2.515e+002  2.277e+001  1.795e+000
 2.516e+002  2.422e+001  4.732e+000
 2.515e+002  2.449e+001  8.030e+000
 2.514e+002  2.447e+001  9.725e+000
 2.514e+002  2.447e+001  1.142e+001
 2.514e+002  2.447e+001  1.312e+001
 2.514e+002  2.447e+001  1.482e+001
 2.514e+002  2.447e+001  1.651e+001
 2.514e+002  2.447e+001  1.821e+001
 2.514e+002  2.448e+001  1.991e+001
 2.514e+002  2.448e+001  2.161e+001
 2.513e+002  2.450e+001  2.330e+001
 2.512e+002  2.451e+001  2.500e+001
 2.477e+002  0.000e+000  0.000e+000
 2.478e+002  3.363e+000  1.087e-006
 2.478e+002  6.725e+000  6.047e-005
 2.479e+002  1.008e+001 -1.106e-003
 2.480e+002  1.344e+001  1.866e-003
 2.482e+002  1.679e+001 -1.082e-002
 2.485e+002  2.011e+001  2.019e-001
 2.488e+002  2.307e+001  1.671e+000
 2.489e+002  2.446e+001  4.680e+000
 2.488e+002  2.463e+001  8.030e+000
 2.487e+002  2.466e+001  9.730e+000
 2.487e+002  2.464e+001  1.143e+001
 2.487e+002  2.464e+001  1.312e+001
 2.487e+002  2.465e+001  1.482e+001
 2.487e+002  2.465e+001  1.652e+001
 2.487e+002  2.465e+001  1.821e+001
 2.487e+002  2.465e+001  1.991e+001
 2.486e+002  2.465e+001  2.161e+001
 2.486e+002  2.466e+001  2.330e+001
 2.484e+002  2.467e+001  2.500e+001
 2.450e+002  0.000e+000  0.000e+000
 2.450e+002  3.396e+000 -1.844e-007
 2.451e+002  6.790e+000  8.379e-005
 2.452e+002  1.018e+001 -1.384e-003
 2.453e+002  1.357e+001  1.751e-003
 2.455e+002  1.695e+001 -1.202e-002
 2.458e+002  2.032e+001  1.392e-001
 2.461e+002  2.334e+001  1.560e+000
 2.461e+002  2.464e+001  4.639e+000
 2.460e+002  2.474e+001  8.030e+000
 2.460e+002  2.479e+001  9.732e+000
 2.460e+002  2.477e+001  1.143e+001
 2.459e+002  2.477e+001  1.312e+001
 2.459e+002  2.477e+001  1.482e+001
 2.459e+002  2.477e+001  1.652e+001
 2.459e+002  2.477e+001  1.821e+001
 2.459e+002  2.477e+001  1.991e+001
 2.459e+002  2.478e+001  2.161e+001
 2.458e+002  2.478e+001  2.330e+001
 2.457e+002  2.479e+001  2.500e+001
 2.423e+002  0.000e+000  0.000e+000
 2.423e+002  3.424e+000  6.552e-007
 2.424e+002  6.848e+000  6.732e-005
 2.425e+002  1.027e+001 -1.173e-003
 2.426e+002  1.369e+001  1.340e-003
 2.428e+002  1.710e+001 -9.795e-003
 2.431e+002  2.051e+001  9.012e-002
 2.433e+002  2.357e+001  1.462e+000
 2.434e+002  2.478e+001  4.607e+000
 2.433e+002  2.483e+001  8.030e+000
 2.432e+002  2.488e+001  9.732e+000
 2.432e+002  2.486e+001  1.143e+001
 2.432e+002  2.486e+001  1.312e+001
 2.432e+002  2.486e+001  1.482e+001
 2.432e+002  2.486e+001  1.652e+001
 2.432e+002  2.486e+001  1.821e+001
 2.432e+002  2.486e+001  1.991e+001
 2.432e+002  2.486e+001  2.161e+001
 2.431e+002  2.487e+001  2.330e+001
 2.430e+002  2.487e+001  2.500e+001
 2.396e+002  0.000e+000  0.000e+000
 2.396e+002  3.449e+000  2.598e-006
 2.397e+002  6.897e+000  2.917e-005
 2.398e+002  1.034e+001 -6.950e-004
 2.399e+002  1.379e+001  8.185e-004
 2.401e+002  1.723e+001 -5.783e-003
 2.403e+002  2.066e+001  5.207e-002
 2.406e+002  2.377e+001  1.376e+000
 2.407e+002  2.487e+001  4.582e+000
 2.406e+002  2.490e+001  8.030e+000
 2.405e+002  2.493e+001  9.730e+000
 2.405e+002  2.492e+001  1.143e+001
 2.405e+002  2.492e+001  1.312e+001
 2.405e+002  2.492e+001  1.482e+001
 2.405e+002  2.492e+001  1.652e+001
 2.405e+002  2.492e+001  1.821e+001
 2.405e+002  2.492e+001  1.991e+001
 2.404e+002  2.492e+001  2.161e+001
 2.404e+002  2.492e+001  2.330e+001
 2.403e+002  2.492e+001  2.500e+001
 2.369e+002  0.000e+000  0.000e+000
 2.369e+002  3.471e+000  4.637e-006
 2.370e+002  6.940e+000 -1.254e-005
 2.370e+002  1.041e+001 -1.721e-004
 2.372e+002  1.387e+001  3.757e-004
 2.373e+002  1.734e+001 -1.646e-003
 2.376e+002  2.080e+001  2.265e-002
 2.379e+002  2.394e+001  1.300e+000
 2.379e+002  2.494e+001  4.563e+000
 2.378e+002  2.495e+001  8.030e+000
 2.378e+002  2.496e+001  9.728e+000
 2.378e+002  2.496e+001  1.142e+001
 2.377e+002  2.496e+001  1.312e+001
 2.377e+002  2.496e+001  1.482e+001
 2.377e+002  2.496e+001  1.652e+001
 2.377e+002  2.496e+001  1.821e+001
 2.377e+002  2.496e+001  1.991e+001
 2.377e+002  2.496e+001  2.161e+001
 2.376e+002  2.496e+001  2.330e+001
 2.375e+002  2.496e+001  2.500e+001
 2.342e+002  0.000e+000  0.000e+000
 2.342e+002  3.489e+000  5.803e-006
 2.343e+002  6.978e+000 -4.060e-005
 2.343e+002  1.047e+001  1.848e-004
 2.344e+002  1.395e+001  1.878e-004
 2.346e+002  1.743e+001  1.014e-003
 2.349e+002  2.092e+001 -5.841e-004
 2.351e+002  2.409e+001  1.234e+000
 2.352e+002  2.497e+001  4.546e+000
 2.351e+002  2.498e+001  8.030e+000
 2.350e+002  2.498e+001  9.727e+000
 2.350e+002  2.498e+001  1.142e+001
 2.350e+002  2.498e+001  1.312e+001
 2.350e+002  2.498e+001  1.482e+001
 2.350e+002  2.498e+001  1.651e+001
 2.350e+002  2.498e+001  1.821e+001
 2.350e+002  2.498e+001  1.991e+001
 2.350e+002  2.498e+001  2.161e+001
 2.349e+002  2.498e+001  2.330e+001
 2.348e+002  2.498e+001  2.500e+001
 2.315e+002  0.000e+000  0.000e+000
 2.315e+002  3.505e+000  5.574e-006
 2.315e+002  7.010e+000 -4.926e-005
 2.316e+002  1.051e+001  3.227e-004
 2.317e+002  1.402e+001  2.479e-004
 2.319e+002  1.752e+001  1.746e-003
 2.321e+002  2.102e+001 -1.933e-002
 2.324e+002  2.421e+001  1.178e+000
 2.324e+002  2.499e+001  4.530e+000
 2.324e+002  2.500e+001  8.030e+000
 2.323e+002  2.499e+001  9.726e+000
 2.323e+002  2.499e+001  1.142e+001
 2.323e+002  2.499e+001  1.312e+001
 2.323e+002  2.499e+001  1.482e+001
 2.323e+002  2.499e+001  1.651e+001
 2.323e+002  2.499e+001  1.821e+001
 2.323e+002  2.499e+001  1.991e+001
 2.322e+002  2.499e+001  2.161e+001
 2.322e+002  2.499e+001  2.330e+001
 2.321e+002  2.499e+001  2.500e+001
 2.288e+002  0.000e+000  0.000e+000
 2.288e+002  3.519e+000  3.721e-006
 2.288e+002  7.037e+000 -4.064e-005
 2.289e+002  1.055e+001  3.053e-004
 2.290e+002  1.407e+001  3.969e-004
 2.292e+002  1.759e+001  1.236e-003
 2.294e+002  2.111e+001 -3.441e-002
 2.297e+002  2.431e+001  1.131e+000
 2.297e+002  2.500e+001  4.517e+000
 2.296e+002  2.501e+001  8.030e+000
 2.296e+002  2.499e+001  9.726e+000
 2.295e+002  2.500e+001  1.142e+001
 2.295e+002  2.500e+001  1.312e+001
 2.295e+002  2.500e+001  1.482e+001
 2.295e+002  2.500e+001  1.651e+001
 2.295e+002  2.500e+001  1.821e+001
 2.295e+002  2.500e+001  1.991e+001
 2.295e+002  2.500e+001  2.161e+001
 2.295e+002  2.500e+001  2.330e+001
 2.293e+002  2.500e+001  2.500e+001
 2.261e+002  0.000e+000  0.000e+000
 2.261e+002  3.529e+000  2.183e-008
 2.261e+002  7.058e+000 -1.703e-005
 2.262e+002  1.059e+001  1.994e-004
 2.263e+002  1.411e+001  4.709e-004
 2.265e+002  1.764e+001  2.170e-004
 2.267e+002  2.118e+001 -4.658e-002
 2.269e+002  2.439e+001  1.093e+000
 2.270e+002  2.500e+001  4.506e+000
 2.269e+002  2.502e+001  8.030e+000
 2.268e+002  2.500e+001  9.726e+000
 2.268e+002  2.500e+001  1.142e+001
 2.268e+002  2.500e+001  1.312e+001
 2.268e+002  2.500e+001  1.482e+001
 2.268e+002  2.500e+001  1.651e+001
 2.268e+002  2.500e+001  1.821e+001
 2.268e+002  2.500e+001  1.991e+001
 2.268e+002  2.500e+001  2.161e+001
 2.267e+002  2.500e+001  2.330e+001
 2.266e+002  2.500e+001  2.500e+001
 2.234e+002  0.000e+000  0.000e+000
 2.234e+002  3.537e+000 -5.747e-006
 2.234e+002  7.074e+000  1.931e-005
 2.235e+002  1.061e+001  7.144e-005
 2.236e+002  1.415e+001  3.063e-004
 2.237e+002  1.768e+001 -5.780e-004
 2.240e+002  2.123e+001 -5.657e-002
 2.242e+002  2.446e+001  1.065e+000
 2.242e+002  2.499e+001  4.497e+000
 2.242e+002  2.501e+001  8.030e+000
 2.241e+002  2.500e+001  9.726e+000
 2.241e+002  2.500e+001  1.142e+001
 2.241e+002  2.500e+001  1.312e+001
 2.241e+002  2.500e+001  1.482e+001
 2.241e+002  2.500e+001  1.651e+001
 2.241e+002  2.500e+001  1.821e+001
 2.241e+002  2.500e+001  1.991e+001
 2.240e+002  2.500e+001  2.161e+001
 2.240e+002  2.500e+001  2.330e+001
 2.239e+002  2.500e+001  2.500e+001
 2.206e+002  0.000e+000  0.000e+000
 2.207e+002  3.542e+000 -1.380e-005
 2.207e+002  7.085e+000  6.607e-005
 2.208e+002  1.063e+001 -1.199e-005
 2.209e+002  1.417e+001 -2.604e-004
 2.210e+002  1.771e+001 -4.162e-004
 2.212e+002  2.126e+001 -6.515e-002
 2.215e+002  2.450e+001  1.047e+000
 2.215e+002  2.498e+001  4.491e+000
 2.214e+002  2.501e+001  8.030e+000
 2.214e+002  2.500e+001  9.727e+000
 2.213e+002  2.500e+001  1.142e+001
 2.213e+002  2.500e+001  1.312e+001
 2.213e+002  2.500e+001  1.482e+001
 2.213e+002  2.500e+001  1.651e+001
 2.213e+002  2.500e+001  1.821e+001
 2.213e+002  2.500e+001  1.991e+001
 2.213e+002  2.500e+001  2.161e+001
 2.213e+002  2.500e+001  2.330e+001
 2.212e+002  2.500e+001  2.500e+001
 2.179e+002  0.000e+000  0.000e+000
 2.180e+002  3.545e+000 -2.352e-005
 2.180e+002  7.090e+000  1.180e-004
 2.181e+002  1.063e+001 -1.320e-005
 2.181e+002  1.418e+001 -1.253e-003
 2.183e+002  1.772e+001  1.075e-003
 2.185e+002  2.128e+001 -7.286e-002
 2.187e+002  2.453e+001  1.039e+000
 2.187e+002  2.498e+001  4.488e+000
 2.187e+002  2.501e+001  8.030e+000
 2.186e+002  2.500e+001  9.727e+000
 2.186e+002  2.500e+001  1.142e+001
 2.186e+002  2.500e+001  1.312e+001
 2.186e+002  2.500e+001  1.482e+001
 2.186e+002  2.500e+001  1.652e+001
 2.186e+002  2.500e+001  1.821e+001
 2.186e+002  2.500e+001  1.991e+001
 2.186e+002  2.500e+001  2.161e+001
 2.185e+002  2.500e+001  2.330e+001
 2.184e+002  2.500e+001  2.500e+001
 2.152e+002  0.000e+000  0.000e+000
 2.152e+002  3.546e+000 -3.246e-005
 2.153e+002  7.092e+000  1.634e-004
 2.153e+002  1.064e+001  3.727e-005
 2.154e+002  1.418e+001 -2.326e-003
 2.156e+002  1.773e+001  3.163e-003
 2.158e+002  2.129e+001 -7.940e-002
 2.160e+002  2.455e+001  1.037e+000
 2.160e+002  2.498e+001  4.487e+000
 2.159e+002  2.500e+001  8.030e+000
 2.159e+002  2.500e+001  9.727e+000
 2.159e+002  2.500e+001  1.142e+001
 2.159e+002  2.500e+001  1.312e+001
 2.159e+002  2.500e+001  1.482e+001
 2.159e+002  2.500e+001  1.652e+001
 2.159e+002  2.500e+001  1.821e+001
 2.159e+002  2.500e+001  1.991e+001
 2.158e+002  2.500e+001  2.161e+001
 2.158e+002  2.500e+001  2.330e+001
 2.157e+002  2.500e+001  2.500e+001
 2.125e+002  0.000e+000  0.000e+000
 2.125e+002  3.547e+000 -3.796e-005
 2.126e+002  7.094e+000  1.895e-004
 2.126e+002  1.064e+001  9.905e-005
 2.127e+002  1.419e+001 -3.078e-003
 2.128e+002  1.774e+001  4.902e-003
 2.130e+002  2.129e+001 -8.429e-002
 2.132e+002  2.456e+001  1.036e+000
 2.133e+002  2.498e+001  4.486e+000
 2.132e+002  2.500e+001  8.030e+000
 2.132e+002  2.500e+001  9.727e+000
 2.131e+002  2.500e+001  1.142e+001
 2.131e+002  2.500e+001  1.312e+001
 2.131e+002  2.500e+001  1.482e+001
 2.131e+002  2.500e+001  1.652e+001
 2.131e+002  2.500e+001  1.821e+001
 2.131e+002  2.500e+001  1.991e+001
 2.131e+002  2.500e+001  2.161e+001
 2.131e+002  2.500e+001  2.330e+001
 2.130e+002  2.500e+001  2.500e+001
 2.098e+002  0.000e+000  0.000e+000
 2.098e+002  3.549e+000 -3.736e-005
 2.099e+002  7.098e+000  1.838e-004
 2.099e+002  1.065e+001  1.317e-004
 2.100e+002  1.420e+001 -3.105e-003
 2.101e+002  1.775e+001  5.347e-003
 2.103e+002  2.130e+001 -8.702e-002
 2.105e+002  2.457e+001  1.032e+000
 2.105e+002  2.498e+001  4.485e+000
 2.105e+002  2.500e+001  8.030e+000
 2.104e+002  2.500e+001  9.727e+000
 2.104e+002  2.500e+001  1.142e+001
 2.104e+002  2.500e+001  1.312e+001
 2.104e+002  2.500e+001  1.482e+001
 2.104e+002  2.500e+001  1.652e+001
 2.104e+002  2.500e+001  1.821e+001
 2.104e+002  2.500e+001  1.991e+001
 2.104e+002  2.500e+001  2.161e+001
 2.103e+002  2.500e+001  2.330e+001
 2.102e+002  2.500e+001  2.500e+001
 2.071e+002  0.000e+000  0.000e+000
 2.071e+002  3.553e+000 -2.800e-005
 2.071e+002  7.106e+000  1.336e-004
 2.072e+002  1.066e+001  9.494e-005
 2.073e+002  1.421e+001 -2.003e-003
 2.074e+002  1.776e+001  3.552e-003
 2.076e+002  2.132e+001 -8.710e-002
 2.078e+002  2.458e+001  1.021e+000
 2.078e+002  2.498e+001  4.482e+000
 2.077e+002  2.500e+001  8.030e+000
 2.077e+002  2.500e+001  9.727e+000
 2.077e+002  2.500e+001  1.142e+001
 2.077e+002  2.500e+001  1.312e+001
 2.077e+002  2.500e+001  1.482e+001
 2.077e+002  2.500e+001  1.652e+001
 2.077e+002  2.500e+001  1.821e+001
 2.077e+002  2.500e+001  1.991e+001
 2.076e+002  2.500e+001  2.161e+001
 2.076e+002  2.500e+001  2.330e+001
 2.075e+002  2.500e+001  2.500e+001
 2.044e+002  0.000e+000  0.000e+000
 2.044e+002  3.560e+000 -7.867e-006
 2.044e+002  7.120e+000  2.932e-005
 2.045e+002  1.068e+001 -4.542e-005
 2.046e+002  1.424e+001  5.607e-004
 2.047e+002  1.780e+001 -1.309e-003
 2.048e+002  2.137e+001 -8.412e-002
 2.050e+002  2.460e+001  9.971e-001
 2.050e+002  2.498e+001  4.475e+000
 2.050e+002  2.500e+001  8.030e+000
 2.049e+002  2.500e+001  9.727e+000
 2.049e+002  2.500e+001  1.142e+001
 2.049e+002  2.500e+001  1.312e+001
 2.049e+002  2.500e+001  1.482e+001
 2.049e+002  2.500e+001  1.651e+001
 2.049e+002  2.500e+001  1.821e+001
 2.049e+002  2.500e+001  1.991e+001
 2.049e+002  2.500e+001  2.161e+001
 2.049e+002  2.500e+001  2.330e+001
 2.048e+002  2.500e+001  2.500e+001
 2.017e+002  0.000e+000  0.000e+000
 2.017e+002  3.569e+000  1.979e-005
 2.017e+002  7.138e+000 -1.123e-004
 2.018e+002  1.071e+001 -2.675e-004
 2.018e+002  1.427e+001  4.218e-003
 2.020e+002  1.784e+001 -8.694e-003
 2.021e+002  2.142e+001 -7.877e-002
 2.023e+002  2.464e+001  9.633e-001
 2.023e+002  2.498e+001  4.466e+000
 2.023e+002  2.500e+001  8.030e+000
 2.022e+002  2.500e+001  9.727e+000
 2.022e+002  2.500e+001  1.142e+001
 2.022e+002  2.500e+001  1.312e+001
 2.022e+002  2.500e+001  1.482e+001
 2.022e+002  2.500e+001  1.651e+001
 2.022e+002  2.500e+001  1.821e+001
 2.022e+002  2.500e+001  1.991e+001
 2.022e+002  2.500e+001  2.161e+001
 2.021e+002  2.500e+001  2.330e+001
 2.021e+002  2.500e+001  2.500e+001
 1.990e+002  0.000e+000  0.000e+000
 1.990e+002  3.579e+000  4.920e-005
 1.990e+002  7.157e+000 -2.615e-004
 1.991e+002  1.074e+001 -5.199e-004
 1.991e+002  1.431e+001  8.206e-003
 1.992e+002  1.789e+001 -1.719e-002
 1.994e+002  2.149e+001 -7.259e-002
 1.995e+002  2.467e+001  9.259e-001
 1.996e+002  2.498e+001  4.456e+000
 1.995e+002  2.500e+001  8.030e+000
 1.995e+002  2.500e+001  9.727e+000
 1.995e+002  2.500e+001  1.142e+001
 1.995e+002  2.500e+001  1.312e+001
 1.995e+002  2.500e+001  1.482e+001
 1.995e+002  2.500e+001  1.651e+001
 1.995e+002  2.500e+001  1.821e+001
 1.995e+002  2.500e+001  1.991e+001
 1.994e+002  2.500e+001  2.161e+001
 1.994e+002  2.500e+001  2.330e+001
 1.993e+002  2.500e+001  2.500e+001
 1.963e+002  0.000e+000  0.000e+000
 1.963e+002  3.587e+000  7.457e-005
 1.963e+002  7.174e+000 -3.884e-004
 1.963e+002  1.076e+001 -7.511e-004
 1.964e+002  1.435e+001  1.176e-002
 1.965e+002  1.793e+001 -2.537e-002
 1.967e+002  2.154e+001 -6.713e-002
 1.968e+002  2.470e+001  8.916e-001
 1.968e+002  2.497e+001  4.446e+000
 1.968e+002  2.500e+001  8.030e+000
 1.967e+002  2.500e+001  9.727e+000
 1.967e+002  2.500e+001  1.142e+001
 1.967e+002  2.500e+001  1.312e+001
 1.967e+002  2.500e+001  1.482e+001
 1.967e+002  2.500e+001  1.651e+001
 1.967e+002  2.500e+001  1.821e+001
 1.967e+002  2.500e+001  1.991e+001
 1.967e+002  2.500e+001  2.161e+001
 1.967e+002  2.500e+001  2.330e+001
 1.966e+002  2.500e+001  2.500e+001
 1.936e+002  0.000e+000  0.000e+000
 1.936e+002  3.592e+000  9.009e-005
 1.936e+002  7.185e+000 -4.634e-004
 1.936e+002  1.078e+001 -9.096e-004
 1.937e+002  1.437e+001  1.410e-002
 1.938e+002  1.796e+001 -3.180e-002
 1.939e+002  2.158e+001 -6.396e-002
 1.941e+002  2.472e+001  8.674e-001
 1.941e+002  2.497e+001  4.439e+000
 1.940e+002  2.500e+001  8.030e+000
 1.940e+002  2.500e+001  9.727e+000
 1.940e+002  2.500e+001  1.142e+001
 1.940e+002  2.500e+001  1.312e+001
 1.940e+002  2.500e+001  1.482e+001
 1.940e+002  2.500e+001  1.651e+001
 1.940e+002  2.500e+001  1.821e+001
 1.940e+002  2.500e+001  1.991e+001
 1.940e+002  2.500e+001  2.161e+001
 1.939e+002  2.500e+001  2.330e+001
 1.939e+002  2.500e+001  2.500e+001
 1.908e+002  0.000e+000  0.000e+000
 1.909e+002  3.593e+000  9.006e-005
 1.909e+002  7.187e+000 -4.568e-004
 1.909e+002  1.078e+001 -9.442e-004
 1.910e+002  1.437e+001  1.448e-002
 1.911e+002  1.797e+001 -3.506e-002
 1.912e+002  2.159e+001 -6.464e-002
 1.913e+002  2.473e+001  8.601e-001
 1.913e+002  2.497e+001  4.437e+000
 1.913e+002  2.500e+001  8.030e+000
 1.913e+002  2.500e+001  9.727e+000
 1.913e+002  2.500e+001  1.142e+001
 1.913e+002  2.500e+001  1.312e+001
 1.913e+002  2.500e+001  1.482e+001
 1.913e+002  2.500e+001  1.652e+001
 1.913e+002  2.500e+001  1.821e+001
 1.913e+002  2.500e+001  1.991e+001
 1.912e+002  2.500e+001  2.161e+001
 1.912e+002  2.500e+001  2.330e+001
 1.911e+002  2.500e+001  2.500e+001
 1.881e+002  0.000e+000  0.000e+000
 1.881e+002  3.589e+000  7.320e-005
 1.882e+002  7.179e+000 -3.631e-004
 1.882e+002  1.077e+001 -8.377e-004
 1.883e+002  1.436e+001  1.263e-002
 1.883e+002  1.795e+001 -3.428e-002
 1.885e+002  2.157e+001 -6.968e-002
 1.886e+002  2.471e+001  8.733e-001
 1.886e+002  2.497e+001  4.440e+000
 1.886e+002  2.500e+001  8.030e+000
 1.885e+002  2.500e+001  9.727e+000
 1.885e+002  2.500e+001  1.142e+001
 1.885e+002  2.500e+001  1.312e+001
 1.885e+002  2.500e+001  1.482e+001
 1.885e+002  2.500e+001  1.652e+001
 1.885e+002  2.500e+001  1.821e+001
 1.885e+002  2.500e+001  1.991e+001
 1.885e+002  2.500e+001  2.161e+001
 1.885e+002  2.500e+001  2.330e+001
 1.884e+002  2.500e+001  2.500e+001
 1.854e+002  0.000e+000  0.000e+000
 1.854e+002  3.582e+000  4.523e-005
 1.855e+002  7.164e+000 -2.150e-004
 1.855e+002  1.075e+001 -6.284e-004
 1.855e+002  1.433e+001  9.211e-003
 1.856e+002  1.791e+001 -2.966e-002
 1.857e+002  2.152e+001 -7.741e-002
 1.858e+002  2.469e+001  9.019e-001
 1.859e+002  2.497e+001  4.448e+000
 1.858e+002  2.500e+001  8.030e+000
 1.858e+002  2.500e+001  9.727e+000
 1.858e+002  2.500e+001  1.142e+001
 1.858e+002  2.500e+001  1.312e+001
 1.858e+002  2.500e+001  1.482e+001
 1.858e+002  2.500e+001  1.652e+001
 1.858e+002  2.500e+001  1.821e+001
 1.858e+002  2.500e+001  1.991e+001
 1.858e+002  2.500e+001  2.161e+001
 1.857e+002  2.500e+001  2.330e+001
 1.857e+002  2.500e+001  2.500e+001
 1.827e+002  0.000e+000  0.000e+000
 1.827e+002  3.572e+000  1.248e-005
 1.827e+002  7.144e+000 -4.828e-005
 1.828e+002  1.072e+001 -3.603e-004
 1.828e+002  1.429e+001  4.952e-003
 1.829e+002  1.787e+001 -2.151e-002
 1.830e+002  2.146e+001 -8.581e-002
 1.831e+002  2.466e+001  9.396e-001
 1.831e+002  2.498e+001  4.458e+000
 1.831e+002  2.500e+001  8.030e+000
 1.831e+002  2.500e+001  9.727e+000
 1.831e+002  2.500e+001  1.142e+001