TITLE = "NODEELEMENT"
VARIABLES = "X", "Y", "Z"
ZONE N=    1580, E=    1482, F=FEPOINT, ET=QUADRILATERAL
 5.475e+002  1.000e+002  8.030e+000
 5.410e+002  1.000e+002  8.030e+000
 5.346e+002  1.000e+002  8.030e+000
 5.281e+002  1.000e+002  8.030e+000
 5.216e+002  1.000e+002  8.030e+000
 5.152e+002  1.000e+002  8.030e+000
 5.087e+002  1.000e+002  8.030e+000
 5.023e+002  1.000e+002  8.030e+000
 4.958e+002  1.000e+002  8.030e+000
 4.893e+002  1.000e+002  8.030e+000
 4.829e+002  1.000e+002  8.030e+000
 4.764e+002  1.000e+002  8.030e+000
 4.699e+002  1.000e+002  8.030e+000
 4.635e+002  1.000e+002  8.030e+000
 4.570e+002  1.000e+002  8.030e+000
 4.505e+002  1.000e+002  8.030e+000
 4.441e+002  1.000e+002  8.030e+000
 4.376e+002  1.000e+002  8.030e+000
 4.311e+002  1.000e+002  8.030e+000
 4.247e+002  1.000e+002  8.030e+000
 4.182e+002  1.000e+002  8.030e+000
 4.118e+002  1.000e+002  8.030e+000
 4.053e+002  1.000e+002  8.030e+000
 3.988e+002  1.000e+002  8.030e+000
 3.924e+002  1.000e+002  8.030e+000
 3.859e+002  1.000e+002  8.030e+000
 3.794e+002  1.000e+002  8.030e+000
 3.730e+002  1.000e+002  8.030e+000
 3.665e+002  1.000e+002  8.030e+000
 3.600e+002  1.000e+002  8.030e+000
 3.536e+002  1.000e+002  8.030e+000
 3.471e+002  1.000e+002  8.030e+000
 3.406e+002  1.000e+002  8.030e+000
 3.342e+002  1.000e+002  8.030e+000
 3.277e+002  1.000e+002  8.030e+000
 3.213e+002  1.000e+002  8.030e+000
 3.148e+002  1.000e+002  8.030e+000
 3.083e+002  1.000e+002  8.030e+000
 3.019e+002  1.000e+002  8.030e+000
 2.954e+002  1.000e+002  8.030e+000
 5.475e+002  9.474e+001  8.030e+000
 5.410e+002  9.474e+001  8.030e+000
 5.346e+002  9.474e+001  8.030e+000
 5.281e+002  9.474e+001  8.030e+000
 5.216e+002  9.474e+001  8.030e+000
 5.152e+002  9.474e+001  8.030e+000
 5.087e+002  9.474e+001  8.030e+000
 5.023e+002  9.474e+001  8.030e+000
 4.958e+002  9.474e+001  8.030e+000
 4.893e+002  9.474e+001  8.030e+000
 4.829e+002  9.474e+001  8.030e+000
 4.764e+002  9.474e+001  8.030e+000
 4.699e+002  9.474e+001  8.030e+000
 4.635e+002  9.474e+001  8.030e+000
 4.570e+002  9.474e+001  8.030e+000
 4.505e+002  9.474e+001  8.030e+000
 4.441e+002  9.474e+001  8.030e+000
 4.376e+002  9.474e+001  8.030e+000
 4.311e+002  9.474e+001  8.030e+000
 4.247e+002  9.474e+001  8.030e+000
 4.182e+002  9.474e+001  8.030e+000
 4.118e+002  9.474e+001  8.030e+000
 4.053e+002  9.474e+001  8.030e+000
 3.988e+002  9.474e+001  8.030e+000
 3.924e+002  9.474e+001  8.030e+000
 3.859e+002  9.474e+001  8.030e+000
 3.794e+002  9.474e+001  8.030e+000
 3.730e+002  9.474e+001  8.030e+000
 3.665e+002  9.474e+001  8.030e+000
 3.600e+002  9.474e+001  8.030e+000
 3.536e+002  9.474e+001  8.030e+000
 3.471e+002  9.474e+001  8.030e+000
 3.406e+002  9.474e+001  8.030e+000
 3.342e+002  9.474e+001  8.030e+000
 3.277e+002  9.474e+001  8.030e+000
 3.213e+002  9.474e+001  8.030e+000
 3.148e+002  9.474e+001  8.030e+000
 3.083e+002  9.474e+001  8.030e+000
 3.019e+002  9.474e+001  8.030e+000
 2.954e+002  9.474e+001  8.030e+000
 5.475e+002  8.947e+001  8.030e+000
 5.410e+002  8.947e+001  8.030e+000
 5.346e+002  8.947e+001  8.030e+000
 5.281e+002  8.947e+001  8.030e+000
 5.216e+002  8.947e+001  8.030e+000
 5.152e+002  8.947e+001  8.030e+000
 5.087e+002  8.947e+001  8.030e+000
 5.023e+002  8.947e+001  8.030e+000
 4.958e+002  8.947e+001  8.030e+000
 4.893e+002  8.947e+001  8.030e+000
 4.829e+002  8.947e+001  8.030e+000
 4.764e+002  8.947e+001  8.030e+000
 4.699e+002  8.947e+001  8.030e+000
 4.635e+002  8.947e+001  8.030e+000
 4.570e+002  8.947e+001  8.030e+000
 4.505e+002  8.947e+001  8.030e+000
 4.441e+002  8.947e+001  8.030e+000
 4.376e+002  8.947e+001  8.030e+000
 4.311e+002  8.947e+001  8.030e+000
 4.247e+002  8.947e+001  8.030e+000
 4.182e+002  8.947e+001  8.030e+000
 4.118e+002  8.947e+001  8.030e+000
 4.053e+002  8.947e+001  8.030e+000
 3.988e+002  8.947e+001  8.030e+000
 3.924e+002  8.947e+001  8.030e+000
 3.859e+002  8.947e+001  8.030e+000
 3.794e+002  8.947e+001  8.030e+000
 3.730e+002  8.947e+001  8.030e+000
 3.665e+002  8.947e+001  8.030e+000
 3.600e+002  8.947e+001  8.030e+000
 3.536e+002  8.947e+001  8.030e+000
 3.471e+002  8.947e+001  8.030e+000
 3.406e+002  8.947e+001  8.030e+000
 3.342e+002  8.947e+001  8.030e+000
 3.277e+002  8.947e+001  8.030e+000
 3.213e+002  8.947e+001  8.030e+000
 3.148e+002  8.947e+001  8.030e+000
 3.083e+002  8.947e+001  8.030e+000
 3.019e+002  8.947e+001  8.030e+000
 2.954e+002  8.947e+001  8.030e+000
 5.475e+002  8.421e+001  8.030e+000
 5.410e+002  8.421e+001  8.030e+000
 5.346e+002  8.421e+001  8.030e+000
 5.281e+002  8.421e+001  8.030e+000
 5.216e+002  8.421e+001  8.030e+000
 5.152e+002  8.421e+001  8.030e+000
 5.087e+002  8.421e+001  8.030e+000
 5.023e+002  8.421e+001  8.030e+000
 4.958e+002  8.421e+001  8.030e+000
 4.893e+002  8.421e+001  8.030e+000
 4.829e+002  8.421e+001  8.030e+000
 4.764e+002  8.421e+001  8.030e+000
 4.699e+002  8.421e+001  8.030e+000
 4.635e+002  8.421e+001  8.030e+000
 4.570e+002  8.421e+001  8.030e+000
 4.505e+002  8.421e+001  8.030e+000
 4.441e+002  8.421e+001  8.030e+000
 4.376e+002  8.421e+001  8.030e+000
 4.311e+002  8.421e+001  8.030e+000
 4.247e+002  8.421e+001  8.030e+000
 4.182e+002  8.421e+001  8.030e+000
 4.118e+002  8.421e+001  8.030e+000
 4.053e+002  8.421e+001  8.030e+000
 3.988e+002  8.421e+001  8.030e+000
 3.924e+002  8.421e+001  8.030e+000
 3.859e+002  8.421e+001  8.030e+000
 3.794e+002  8.421e+001  8.030e+000
 3.730e+002  8.421e+001  8.030e+000
 3.665e+002  8.421e+001  8.030e+000
 3.600e+002  8.421e+001  8.030e+000
 3.536e+002  8.421e+001  8.030e+000
 3.471e+002  8.421e+001  8.030e+000
 3.406e+002  8.421e+001  8.030e+000
 3.342e+002  8.421e+001  8.030e+000
 3.277e+002  8.421e+001  8.030e+000
 3.213e+002  8.421e+001  8.030e+000
 3.148e+002  8.421e+001  8.030e+000
 3.083e+002  8.421e+001  8.030e+000
 3.019e+002  8.421e+001  8.030e+000
 2.954e+002  8.421e+001  8.030e+000
 5.475e+002  7.895e+001  8.030e+000
 5.410e+002  7.895e+001  8.030e+000
 5.346e+002  7.895e+001  8.030e+000
 5.281e+002  7.895e+001  8.030e+000
 5.216e+002  7.895e+001  8.030e+000
 5.152e+002  7.895e+001  8.030e+000
 5.087e+002  7.895e+001  8.030e+000
 5.023e+002  7.895e+001  8.030e+000
 4.958e+002  7.895e+001  8.030e+000
 4.893e+002  7.895e+001  8.030e+000
 4.829e+002  7.895e+001  8.030e+000
 4.764e+002  7.895e+001  8.030e+000
 4.699e+002  7.895e+001  8.030e+000
 4.635e+002  7.895e+001  8.030e+000
 4.570e+002  7.895e+001  8.030e+000
 4.505e+002  7.895e+001  8.030e+000
 4.441e+002  7.895e+001  8.030e+000
 4.376e+002  7.895e+001  8.030e+000
 4.311e+002  7.895e+001  8.030e+000
 4.247e+002  7.895e+001  8.030e+000
 4.182e+002  7.895e+001  8.030e+000
 4.118e+002  7.895e+001  8.030e+000
 4.053e+002  7.895e+001  8.030e+000
 3.988e+002  7.895e+001  8.030e+000
 3.924e+002  7.895e+001  8.030e+000
 3.859e+002  7.895e+001  8.030e+000
 3.794e+002  7.895e+001  8.030e+000
 3.730e+002  7.895e+001  8.030e+000
 3.665e+002  7.895e+001  8.030e+000
 3.600e+002  7.895e+001  8.030e+000
 3.536e+002  7.895e+001  8.030e+000
 3.471e+002  7.895e+001  8.030e+000
 3.406e+002  7.895e+001  8.030e+000
 3.342e+002  7.895e+001  8.030e+000
 3.277e+002  7.895e+001  8.030e+000
 3.213e+002  7.895e+001  8.030e+000
 3.148e+002  7.895e+001  8.030e+000
 3.083e+002  7.895e+001  8.030e+000
 3.019e+002  7.895e+001  8.030e+000
 2.954e+002  7.895e+001  8.030e+000
 5.475e+002  7.368e+001  8.030e+000
 5.410e+002  7.368e+001  8.030e+000
 5.346e+002  7.368e+001  8.030e+000
 5.281e+002  7.368e+001  8.030e+000
 5.216e+002  7.368e+001  8.030e+000
 5.152e+002  7.368e+001  8.030e+000
 5.087e+002  7.368e+001  8.030e+000
 5.023e+002  7.368e+001  8.030e+000
 4.958e+002  7.368e+001  8.030e+000
 4.893e+002  7.368e+001  8.030e+000
 4.829e+002  7.368e+001  8.030e+000
 4.764e+002  7.368e+001  8.030e+000
 4.699e+002  7.368e+001  8.030e+000
 4.635e+002  7.368e+001  8.030e+000
 4.570e+002  7.368e+001  8.030e+000
 4.505e+002  7.368e+001  8.030e+000
 4.441e+002  7.368e+001  8.030e+000
 4.376e+002  7.368e+001  8.030e+000
 4.311e+002  7.368e+001  8.030e+000
 4.247e+002  7.368e+001  8.030e+000
 4.182e+002  7.368e+001  8.030e+000
 4.118e+002  7.368e+001  8.030e+000
 4.053e+002  7.368e+001  8.030e+000
 3.988e+002  7.368e+001  8.030e+000
 3.924e+002  7.368e+001  8.030e+000
 3.859e+002  7.368e+001  8.030e+000
 3.794e+002  7.368e+001  8.030e+000
 3.730e+002  7.368e+001  8.030e+000
 3.665e+002  7.368e+001  8.030e+000
 3.600e+002  7.368e+001  8.030e+000
 3.536e+002  7.368e+001  8.030e+000
 3.471e+002  7.368e+001  8.030e+000
 3.406e+002  7.368e+001  8.030e+000
 3.342e+002  7.368e+001  8.030e+000
 3.277e+002  7.368e+001  8.030e+000
 3.213e+002  7.368e+001  8.030e+000
 3.148e+002  7.368e+001  8.030e+000
 3.083e+002  7.368e+001  8.030e+000
 3.019e+002  7.368e+001  8.030e+000
 2.954e+002  7.368e+001  8.030e+000
 5.475e+002  6.842e+001  8.030e+000
 5.410e+002  6.842e+001  8.030e+000
 5.346e+002  6.842e+001  8.030e+000
 5.281e+002  6.842e+001  8.030e+000
 5.216e+002  6.842e+001  8.030e+000
 5.152e+002  6.842e+001  8.030e+000
 5.087e+002  6.842e+001  8.030e+000
 5.023e+002  6.842e+001  8.030e+000
 4.958e+002  6.842e+001  8.030e+000
 4.893e+002  6.842e+001  8.030e+000
 4.829e+002  6.842e+001  8.030e+000
 4.764e+002  6.842e+001  8.030e+000
 4.699e+002  6.842e+001  8.030e+000
 4.635e+002  6.842e+001  8.030e+000
 4.570e+002  6.842e+001  8.030e+000
 4.505e+002  6.842e+001  8.030e+000
 4.441e+002  6.842e+001  8.030e+000
 4.376e+002  6.842e+001  8.030e+000
 4.311e+002  6.842e+001  8.030e+000
 4.247e+002  6.842e+001  8.030e+000
 4.182e+002  6.842e+001  8.030e+000
 4.118e+002  6.842e+001  8.030e+000
 4.053e+002  6.842e+001  8.030e+000
 3.988e+002  6.842e+001  8.030e+000
 3.924e+002  6.842e+001  8.030e+000
 3.859e+002  6.842e+001  8.030e+000
 3.794e+002  6.842e+001  8.030e+000
 3.730e+002  6.842e+001  8.030e+000
 3.665e+002  6.842e+001  8.030e+000
 3.600e+002  6.842e+001  8.030e+000
 3.536e+002  6.842e+001  8.030e+000
 3.471e+002  6.842e+001  8.030e+000
 3.406e+002  6.842e+001  8.030e+000
 3.342e+002  6.842e+001  8.030e+000
 3.277e+002  6.842e+001  8.030e+000
 3.213e+002  6.842e+001  8.030e+000
 3.148e+002  6.842e+001  8.030e+000
 3.083e+002  6.842e+001  8.030e+000
 3.019e+002  6.842e+001  8.030e+000
 2.954e+002  6.842e+001  8.030e+000
 5.475e+002  6.316e+001  8.030e+000
 5.410e+002  6.316e+001  8.030e+000
 5.346e+002  6.316e+001  8.030e+000
 5.281e+002  6.316e+001  8.030e+000
 5.216e+002  6.316e+001  8.030e+000
 5.152e+002  6.316e+001  8.030e+000
 5.087e+002  6.316e+001  8.030e+000
 5.023e+002  6.316e+001  8.030e+000
 4.958e+002  6.316e+001  8.030e+000
 4.893e+002  6.316e+001  8.030e+000
 4.829e+002  6.316e+001  8.030e+000
 4.764e+002  6.316e+001  8.030e+000
 4.699e+002  6.316e+001  8.030e+000
 4.635e+002  6.316e+001  8.030e+000
 4.570e+002  6.316e+001  8.030e+000
 4.505e+002  6.316e+001  8.030e+000
 4.441e+002  6.316e+001  8.030e+000
 4.376e+002  6.316e+001  8.030e+000
 4.311e+002  6.316e+001  8.030e+000
 4.247e+002  6.316e+001  8.030e+000
 4.182e+002  6.316e+001  8.030e+000
 4.118e+002  6.316e+001  8.030e+000
 4.053e+002  6.316e+001  8.030e+000
 3.988e+002  6.316e+001  8.030e+000
 3.924e+002  6.316e+001  8.030e+000
 3.859e+002  6.316e+001  8.030e+000
 3.794e+002  6.316e+001  8.030e+000
 3.730e+002  6.316e+001  8.030e+000
 3.665e+002  6.316e+001  8.030e+000
 3.600e+002  6.316e+001  8.030e+000
 3.536e+002  6.316e+001  8.030e+000
 3.471e+002  6.316e+001  8.030e+000
 3.406e+002  6.316e+001  8.030e+000
 3.342e+002  6.316e+001  8.030e+000
 3.277e+002  6.316e+001  8.030e+000
 3.213e+002  6.316e+001  8.030e+000
 3.148e+002  6.316e+001  8.030e+000
 3.083e+002  6.316e+001  8.030e+000
 3.019e+002  6.316e+001  8.030e+000
 2.954e+002  6.316e+001  8.030e+000
 5.475e+002  5.789e+001  8.030e+000
 5.410e+002  5.789e+001  8.030e+000
 5.346e+002  5.789e+001  8.030e+000
 5.281e+002  5.789e+001  8.030e+000
 5.216e+002  5.789e+001  8.030e+000
 5.152e+002  5.789e+001  8.030e+000
 5.087e+002  5.789e+001  8.030e+000
 5.023e+002  5.789e+001  8.030e+000
 4.958e+002  5.789e+001  8.030e+000
 4.893e+002  5.789e+001  8.030e+000
 4.829e+002  5.789e+001  8.030e+000
 4.764e+002  5.789e+001  8.030e+000
 4.699e+002  5.789e+001  8.030e+000
 4.635e+002  5.789e+001  8.030e+000
 4.570e+002  5.789e+001  8.030e+000
 4.505e+002  5.789e+001  8.030e+000
 4.441e+002  5.789e+001  8.030e+000
 4.376e+002  5.789e+001  8.030e+000
 4.311e+002  5.789e+001  8.030e+000
 4.247e+002  5.789e+001  8.030e+000
 4.182e+002  5.789e+001  8.030e+000
 4.118e+002  5.789e+001  8.030e+000
 4.053e+002  5.789e+001  8.030e+000
 3.988e+002  5.789e+001  8.030e+000
 3.924e+002  5.789e+001  8.030e+000
 3.859e+002  5.789e+001  8.030e+000
 3.794e+002  5.789e+001  8.030e+000
 3.730e+002  5.789e+001  8.030e+000
 3.665e+002  5.789e+001  8.030e+000
 3.600e+002  5.789e+001  8.030e+000
 3.536e+002  5.789e+001  8.030e+000
 3.471e+002  5.789e+001  8.030e+000
 3.406e+002  5.789e+001  8.030e+000
 3.342e+002  5.789e+001  8.030e+000
 3.277e+002  5.789e+001  8.030e+000
 3.213e+002  5.789e+001  8.030e+000
 3.148e+002  5.789e+001  8.030e+000
 3.083e+002  5.789e+001  8.030e+000
 3.019e+002  5.789e+001  8.030e+000
 2.954e+002  5.789e+001  8.030e+000
 5.475e+002  5.263e+001  8.030e+000
 5.410e+002  5.263e+001  8.030e+000
 5.346e+002  5.263e+001  8.030e+000
 5.281e+002  5.263e+001  8.030e+000
 5.216e+002  5.263e+001  8.030e+000
 5.152e+002  5.263e+001  8.030e+000
 5.087e+002  5.263e+001  8.030e+000
 5.023e+002  5.263e+001  8.030e+000
 4.958e+002  5.263e+001  8.030e+000
 4.893e+002  5.263e+001  8.030e+000
 4.829e+002  5.263e+001  8.030e+000
 4.764e+002  5.263e+001  8.030e+000
 4.699e+002  5.263e+001  8.030e+000
 4.635e+002  5.263e+001  8.030e+000
 4.570e+002  5.263e+001  8.030e+000
 4.505e+002  5.263e+001  8.030e+000
 4.441e+002  5.263e+001  8.030e+000
 4.376e+002  5.263e+001  8.030e+000
 4.311e+002  5.263e+001  8.030e+000
 4.247e+002  5.263e+001  8.030e+000
 4.182e+002  5.263e+001  8.030e+000
 4.118e+002  5.263e+001  8.030e+000
 4.053e+002  5.263e+001  8.030e+000
 3.988e+002  5.263e+001  8.030e+000
 3.924e+002  5.263e+001  8.030e+000
 3.859e+002  5.263e+001  8.030e+000
 3.794e+002  5.263e+001  8.030e+000
 3.730e+002  5.263e+001  8.030e+000
 3.665e+002  5.263e+001  8.030e+000
 3.600e+002  5.263e+001  8.030e+000
 3.536e+002  5.263e+001  8.030e+000
 3.471e+002  5.263e+001  8.030e+000
 3.406e+002  5.263e+001  8.030e+000
 3.342e+002  5.263e+001  8.030e+000
 3.277e+002  5.263e+001  8.030e+000
 3.213e+002  5.263e+001  8.030e+000
 3.148e+002  5.263e+001  8.030e+000
 3.083e+002  5.263e+001  8.030e+000
 3.019e+002  5.263e+001  8.030e+000
 2.954e+002  5.263e+001  8.030e+000
 5.475e+002  4.737e+001  8.030e+000
 5.410e+002  4.737e+001  8.030e+000
 5.346e+002  4.737e+001  8.030e+000
 5.281e+002  4.737e+001  8.030e+000
 5.216e+002  4.737e+001  8.030e+000
 5.152e+002  4.737e+001  8.030e+000
 5.087e+002  4.737e+001  8.030e+000
 5.023e+002  4.737e+001  8.030e+000
 4.958e+002  4.737e+001  8.030e+000
 4.893e+002  4.737e+001  8.030e+000
 4.829e+002  4.737e+001  8.030e+000
 4.764e+002  4.737e+001  8.030e+000
 4.699e+002  4.737e+001  8.030e+000
 4.635e+002  4.737e+001  8.030e+000
 4.570e+002  4.737e+001  8.030e+000
 4.505e+002  4.737e+001  8.030e+000
 4.441e+002  4.737e+001  8.030e+000
 4.376e+002  4.737e+001  8.030e+000
 4.311e+002  4.737e+001  8.030e+000
 4.247e+002  4.737e+001  8.030e+000
 4.182e+002  4.737e+001  8.030e+000
 4.118e+002  4.737e+001  8.030e+000
 4.053e+002  4.737e+001  8.030e+000
 3.988e+002  4.737e+001  8.030e+000
 3.924e+002  4.737e+001  8.030e+000
 3.859e+002  4.737e+001  8.030e+000
 3.794e+002  4.737e+001  8.030e+000
 3.730e+002  4.737e+001  8.030e+000
 3.665e+002  4.737e+001  8.030e+000
 3.600e+002  4.737e+001  8.030e+000
 3.536e+002  4.737e+001  8.030e+000
 3.471e+002  4.737e+001  8.030e+000
 3.406e+002  4.737e+001  8.030e+000
 3.342e+002  4.737e+001  8.030e+000
 3.277e+002  4.737e+001  8.030e+000
 3.213e+002  4.737e+001  8.030e+000
 3.148e+002  4.737e+001  8.030e+000
 3.083e+002  4.737e+001  8.030e+000
 3.019e+002  4.737e+001  8.030e+000
 2.954e+002  4.737e+001  8.030e+000
 5.475e+002  4.211e+001  8.030e+000
 5.410e+002  4.211e+001  8.030e+000
 5.346e+002  4.211e+001  8.030e+000
 5.281e+002  4.211e+001  8.030e+000
 5.216e+002  4.211e+001  8.030e+000
 5.152e+002  4.211e+001  8.030e+000
 5.087e+002  4.211e+001  8.030e+000
 5.023e+002  4.211e+001  8.030e+000
 4.958e+002  4.211e+001  8.030e+000
 4.893e+002  4.211e+001  8.030e+000
 4.829e+002  4.211e+001  8.030e+000
 4.764e+002  4.211e+001  8.030e+000
 4.699e+002  4.211e+001  8.030e+000
 4.635e+002  4.211e+001  8.030e+000
 4.570e+002  4.211e+001  8.030e+000
 4.505e+002  4.211e+001  8.030e+000
 4.441e+002  4.211e+001  8.030e+000
 4.376e+002  4.211e+001  8.030e+000
 4.311e+002  4.211e+001  8.030e+000
 4.247e+002  4.211e+001  8.030e+000
 4.182e+002  4.211e+001  8.030e+000
 4.118e+002  4.211e+001  8.030e+000
 4.053e+002  4.211e+001  8.030e+000
 3.988e+002  4.211e+001  8.030e+000
 3.924e+002  4.211e+001  8.030e+000
 3.859e+002  4.211e+001  8.030e+000
 3.794e+002  4.211e+001  8.030e+000
 3.730e+002  4.211e+001  8.030e+000
 3.665e+002  4.211e+001  8.030e+000
 3.600e+002  4.211e+001  8.030e+000
 3.536e+002  4.211e+001  8.030e+000
 3.471e+002  4.211e+001  8.030e+000
 3.406e+002  4.211e+001  8.030e+000
 3.342e+002  4.211e+001  8.030e+000
 3.277e+002  4.211e+001  8.030e+000
 3.213e+002  4.211e+001  8.030e+000
 3.148e+002  4.211e+001  8.030e+000
 3.083e+002  4.211e+001  8.030e+000
 3.019e+002  4.211e+001  8.030e+000
 2.954e+002  4.211e+001  8.030e+000
 5.475e+002  3.684e+001  8.030e+000
 5.410e+002  3.684e+001  8.030e+000
 5.346e+002  3.684e+001  8.030e+000
 5.281e+002  3.684e+001  8.030e+000
 5.216e+002  3.684e+001  8.030e+000
 5.152e+002  3.684e+001  8.030e+000
 5.087e+002  3.684e+001  8.030e+000
 5.023e+002  3.684e+001  8.030e+000
 4.958e+002  3.684e+001  8.030e+000
 4.893e+002  3.684e+001  8.030e+000
 4.829e+002  3.684e+001  8.030e+000
 4.764e+002  3.684e+001  8.030e+000
 4.699e+002  3.684e+001  8.030e+000
 4.635e+002  3.684e+001  8.030e+000
 4.570e+002  3.684e+001  8.030e+000
 4.505e+002  3.684e+001  8.030e+000
 4.441e+002  3.684e+001  8.030e+000
 4.376e+002  3.684e+001  8.030e+000
 4.311e+002  3.684e+001  8.030e+000
 4.247e+002  3.684e+001  8.030e+000
 4.182e+002  3.684e+001  8.030e+000
 4.118e+002  3.684e+001  8.030e+000
 4.053e+002  3.684e+001  8.030e+000
 3.988e+002  3.684e+001  8.030e+000
 3.924e+002  3.684e+001  8.030e+000
 3.859e+002  3.684e+001  8.030e+000
 3.794e+002  3.684e+001  8.030e+000
 3.730e+002  3.684e+001  8.030e+000
 3.665e+002  3.684e+001  8.030e+000
 3.600e+002  3.684e+001  8.030e+000
 3.536e+002  3.684e+001  8.030e+000
 3.471e+002  3.684e+001  8.030e+000
 3.406e+002  3.684e+001  8.030e+000
 3.342e+002  3.684e+001  8.030e+000
 3.277e+002  3.684e+001  8.030e+000
 3.213e+002  3.684e+001  8.030e+000
 3.148e+002  3.684e+001  8.030e+000
 3.083e+002  3.684e+001  8.030e+000
 3.019e+002  3.684e+001  8.030e+000
 2.954e+002  3.684e+001  8.030e+000
 5.475e+002  3.158e+001  8.030e+000
 5.410e+002  3.158e+001  8.030e+000
 5.346e+002  3.158e+001  8.030e+000
 5.281e+002  3.158e+001  8.030e+000
 5.216e+002  3.158e+001  8.030e+000
 5.152e+002  3.158e+001  8.030e+000
 5.087e+002  3.158e+001  8.030e+000
 5.023e+002  3.158e+001  8.030e+000
 4.958e+002  3.158e+001  8.030e+000
 4.893e+002  3.158e+001  8.030e+000
 4.829e+002  3.158e+001  8.030e+000
 4.764e+002  3.158e+001  8.030e+000
 4.699e+002  3.158e+001  8.030e+000
 4.635e+002  3.158e+001  8.030e+000
 4.570e+002  3.158e+001  8.030e+000
 4.505e+002  3.158e+001  8.030e+000
 4.441e+002  3.158e+001  8.030e+000
 4.376e+002  3.158e+001  8.030e+000
 4.311e+002  3.158e+001  8.030e+000
 4.247e+002  3.158e+001  8.030e+000
 4.182e+002  3.158e+001  8.030e+000
 4.118e+002  3.158e+001  8.030e+000
 4.053e+002  3.158e+001  8.030e+000
 3.988e+002  3.158e+001  8.030e+000
 3.924e+002  3.158e+001  8.030e+000
 3.859e+002  3.158e+001  8.030e+000
 3.794e+002  3.158e+001  8.030e+000
 3.730e+002  3.158e+001  8.030e+000
 3.665e+002  3.158e+001  8.030e+000
 3.600e+002  3.158e+001  8.030e+000
 3.536e+002  3.158e+001  8.030e+000
 3.471e+002  3.158e+001  8.030e+000
 3.406e+002  3.158e+001  8.030e+000
 3.342e+002  3.158e+001  8.030e+000
 3.277e+002  3.158e+001  8.030e+000
 3.213e+002  3.158e+001  8.030e+000
 3.148e+002  3.158e+001  8.030e+000
 3.083e+002  3.158e+001  8.030e+000
 3.019e+002  3.158e+001  8.030e+000
 2.954e+002  3.158e+001  8.030e+000
 5.475e+002  2.632e+001  8.030e+000
 5.410e+002  2.632e+001  8.030e+000
 5.346e+002  2.632e+001  8.030e+000
 5.281e+002  2.632e+001  8.030e+000
 5.216e+002  2.632e+001  8.030e+000
 5.152e+002  2.632e+001  8.030e+000
 5.087e+002  2.632e+001  8.030e+000
 5.023e+002  2.632e+001  8.030e+000
 4.958e+002  2.632e+001  8.030e+000
 4.893e+002  2.632e+001  8.030e+000
 4.829e+002  2.632e+001  8.030e+000
 4.764e+002  2.632e+001  8.030e+000
 4.699e+002  2.632e+001  8.030e+000
 4.635e+002  2.632e+001  8.030e+000
 4.570e+002  2.632e+001  8.030e+000
 4.505e+002  2.632e+001  8.030e+000
 4.441e+002  2.632e+001  8.030e+000
 4.376e+002  2.632e+001  8.030e+000
 4.311e+002  2.632e+001  8.030e+000
 4.247e+002  2.632e+001  8.030e+000
 4.182e+002  2.632e+001  8.030e+000
 4.118e+002  2.632e+001  8.030e+000
 4.053e+002  2.632e+001  8.030e+000
 3.988e+002  2.632e+001  8.030e+000
 3.924e+002  2.632e+001  8.030e+000
 3.859e+002  2.632e+001  8.030e+000
 3.794e+002  2.632e+001  8.030e+000
 3.730e+002  2.632e+001  8.030e+000
 3.665e+002  2.632e+001  8.030e+000
 3.600e+002  2.632e+001  8.030e+000
 3.536e+002  2.632e+001  8.030e+000
 3.471e+002  2.632e+001  8.030e+000
 3.406e+002  2.632e+001  8.030e+000
 3.342e+002  2.632e+001  8.030e+000
 3.277e+002  2.632e+001  8.030e+000
 3.213e+002  2.632e+001  8.030e+000
 3.148e+002  2.632e+001  8.030e+000
 3.083e+002  2.632e+001  8.030e+000
 3.019e+002  2.632e+001  8.030e+000
 2.954e+002  2.632e+001  8.030e+000
 5.475e+002  2.105e+001  8.030e+000
 5.410e+002  2.105e+001  8.030e+000
 5.346e+002  2.105e+001  8.030e+000
 5.281e+002  2.105e+001  8.030e+000
 5.216e+002  2.105e+001  8.030e+000
 5.152e+002  2.105e+001  8.030e+000
 5.087e+002  2.105e+001  8.030e+000
 5.023e+002  2.105e+001  8.030e+000
 4.958e+002  2.105e+001  8.030e+000
 4.893e+002  2.105e+001  8.030e+000
 4.829e+002  2.105e+001  8.030e+000
 4.764e+002  2.105e+001  8.030e+000
 4.699e+002  2.105e+001  8.030e+000
 4.635e+002  2.105e+001  8.030e+000
 4.570e+002  2.105e+001  8.030e+000
 4.505e+002  2.105e+001  8.030e+000
 4.441e+002  2.105e+001  8.030e+000
 4.376e+002  2.105e+001  8.030e+000
 4.311e+002  2.105e+001  8.030e+000
 4.247e+002  2.105e+001  8.030e+000
 4.182e+002  2.105e+001  8.030e+000
 4.118e+002  2.105e+001  8.030e+000
 4.053e+002  2.105e+001  8.030e+000
 3.988e+002  2.105e+001  8.030e+000
 3.924e+002  2.105e+001  8.030e+000
 3.859e+002  2.105e+001  8.030e+000
 3.794e+002  2.105e+001  8.030e+000
 3.730e+002  2.105e+001  8.030e+000
 3.665e+002  2.105e+001  8.030e+000
 3.600e+002  2.105e+001  8.030e+000
 3.536e+002  2.105e+001  8.030e+000
 3.471e+002  2.105e+001  8.030e+000
 3.406e+002  2.105e+001  8.030e+000
 3.342e+002  2.105e+001  8.030e+000
 3.277e+002  2.105e+001  8.030e+000
 3.213e+002  2.105e+001  8.030e+000
 3.148e+002  2.105e+001  8.030e+000
 3.083e+002  2.105e+001  8.030e+000
 3.019e+002  2.105e+001  8.030e+000
 2.954e+002  2.105e+001  8.030e+000
 5.475e+002  1.579e+001  8.030e+000
 5.410e+002  1.579e+001  8.030e+000
 5.346e+002  1.579e+001  8.030e+000
 5.281e+002  1.579e+001  8.030e+000
 5.216e+002  1.579e+001  8.030e+000
 5.152e+002  1.579e+001  8.030e+000
 5.087e+002  1.579e+001  8.030e+000
 5.023e+002  1.579e+001  8.030e+000
 4.958e+002  1.579e+001  8.030e+000
 4.893e+002  1.579e+001  8.030e+000
 4.829e+002  1.579e+001  8.030e+000
 4.764e+002  1.579e+001  8.030e+000
 4.699e+002  1.579e+001  8.030e+000
 4.635e+002  1.579e+001  8.030e+000
 4.570e+002  1.579e+001  8.030e+000
 4.505e+002  1.579e+001  8.030e+000
 4.441e+002  1.579e+001  8.030e+000
 4.376e+002  1.579e+001  8.030e+000
 4.311e+002  1.579e+001  8.030e+000
 4.247e+002  1.579e+001  8.030e+000
 4.182e+002  1.579e+001  8.030e+000
 4.118e+002  1.579e+001  8.030e+000
 4.053e+002  1.579e+001  8.030e+000
 3.988e+002  1.579e+001  8.030e+000
 3.924e+002  1.579e+001  8.030e+000
 3.859e+002  1.579e+001  8.030e+000
 3.794e+002  1.579e+001  8.030e+000
 3.730e+002  1.579e+001  8.030e+000
 3.665e+002  1.579e+001  8.030e+000
 3.600e+002  1.579e+001  8.030e+000
 3.536e+002  1.579e+001  8.030e+000
 3.471e+002  1.579e+001  8.030e+000
 3.406e+002  1.579e+001  8.030e+000
 3.342e+002  1.579e+001  8.030e+000
 3.277e+002  1.579e+001  8.030e+000
 3.213e+002  1.579e+001  8.030e+000
 3.148e+002  1.579e+001  8.030e+000
 3.083e+002  1.579e+001  8.030e+000
 3.019e+002  1.579e+001  8.030e+000
 2.954e+002  1.579e+001  8.030e+000
 5.475e+002  1.053e+001  8.030e+000
 5.410e+002  1.053e+001  8.030e+000
 5.346e+002  1.053e+001  8.030e+000
 5.281e+002  1.053e+001  8.030e+000
 5.216e+002  1.053e+001  8.030e+000
 5.152e+002  1.053e+001  8.030e+000
 5.087e+002  1.053e+001  8.030e+000
 5.023e+002  1.053e+001  8.030e+000
 4.958e+002  1.053e+001  8.030e+000
 4.893e+002  1.053e+001  8.030e+000
 4.829e+002  1.053e+001  8.030e+000
 4.764e+002  1.053e+001  8.030e+000
 4.699e+002  1.053e+001  8.030e+000
 4.635e+002  1.053e+001  8.030e+000
 4.570e+002  1.053e+001  8.030e+000
 4.505e+002  1.053e+001  8.030e+000
 4.441e+002  1.053e+001  8.030e+000
 4.376e+002  1.053e+001  8.030e+000
 4.311e+002  1.053e+001  8.030e+000
 4.247e+002  1.053e+001  8.030e+000
 4.182e+002  1.053e+001  8.030e+000
 4.118e+002  1.053e+001  8.030e+000
 4.053e+002  1.053e+001  8.030e+000
 3.988e+002  1.053e+001  8.030e+000
 3.924e+002  1.053e+001  8.030e+000
 3.859e+002  1.053e+001  8.030e+000
 3.794e+002  1.053e+001  8.030e+000
 3.730e+002  1.053e+001  8.030e+000
 3.665e+002  1.053e+001  8.030e+000
 3.600e+002  1.053e+001  8.030e+000
 3.536e+002  1.053e+001  8.030e+000
 3.471e+002  1.053e+001  8.030e+000
 3.406e+002  1.053e+001  8.030e+000
 3.342e+002  1.053e+001  8.030e+000
 3.277e+002  1.053e+001  8.030e+000
 3.213e+002  1.053e+001  8.030e+000
 3.148e+002  1.053e+001  8.030e+000
 3.083e+002  1.053e+001  8.030e+000
 3.019e+002  1.053e+001  8.030e+000
 2.954e+002  1.053e+001  8.030e+000
 5.475e+002  5.263e+000  8.030e+000
 5.410e+002  5.263e+000  8.030e+000
 5.346e+002  5.263e+000  8.030e+000
 5.281e+002  5.263e+000  8.030e+000
 5.216e+002  5.263e+000  8.030e+000
 5.152e+002  5.263e+000  8.030e+000
 5.087e+002  5.263e+000  8.030e+000
 5.023e+002  5.263e+000  8.030e+000
 4.958e+002  5.263e+000  8.030e+000
 4.893e+002  5.263e+000  8.030e+000
 4.829e+002  5.263e+000  8.030e+000
 4.764e+002  5.263e+000  8.030e+000
 4.699e+002  5.263e+000  8.030e+000
 4.635e+002  5.263e+000  8.030e+000
 4.570e+002  5.263e+000  8.030e+000
 4.505e+002  5.263e+000  8.030e+000
 4.441e+002  5.263e+000  8.030e+000
 4.376e+002  5.263e+000  8.030e+000
 4.311e+002  5.263e+000  8.030e+000
 4.247e+002  5.263e+000  8.030e+000
 4.182e+002  5.263e+000  8.030e+000
 4.118e+002  5.263e+000  8.030e+000
 4.053e+002  5.263e+000  8.030e+000
 3.988e+002  5.263e+000  8.030e+000
 3.924e+002  5.263e+000  8.030e+000
 3.859e+002  5.263e+000  8.030e+000
 3.794e+002  5.263e+000  8.030e+000
 3.730e+002  5.263e+000  8.030e+000
 3.665e+002  5.263e+000  8.030e+000
 3.600e+002  5.263e+000  8.030e+000
 3.536e+002  5.263e+000  8.030e+000
 3.471e+002  5.263e+000  8.030e+000
 3.406e+002  5.263e+000  8.030e+000
 3.342e+002  5.263e+000  8.030e+000
 3.277e+002  5.263e+000  8.030e+000
 3.213e+002  5.263e+000  8.030e+000
 3.148e+002  5.263e+000  8.030e+000
 3.083e+002  5.263e+000  8.030e+000
 3.019e+002  5.263e+000  8.030e+000
 2.954e+002  5.263e+000  8.030e+000
 5.475e+002  0.000e+000  8.030e+000
 5.410e+002  0.000e+000  8.030e+000
 5.346e+002  0.000e+000  8.030e+000
 5.281e+002  0.000e+000  8.030e+000
 5.216e+002  0.000e+000  8.030e+000
 5.152e+002  0.000e+000  8.030e+000
 5.087e+002  0.000e+000  8.030e+000
 5.023e+002  0.000e+000  8.030e+000
 4.958e+002  0.000e+000  8.030e+000
 4.893e+002  0.000e+000  8.030e+000
 4.829e+002  0.000e+000  8.030e+000
 4.764e+002  0.000e+000  8.030e+000
 4.699e+002  0.000e+000  8.030e+000
 4.635e+002  0.000e+000  8.030e+000
 4.570e+002  0.000e+000  8.030e+000
 4.505e+002  0.000e+000  8.030e+000
 4.441e+002  0.000e+000  8.030e+000
 4.376e+002  0.000e+000  8.030e+000
 4.311e+002  0.000e+000  8.030e+000
 4.247e+002  0.000e+000  8.030e+000
 4.182e+002  0.000e+000  8.030e+000
 4.118e+002  0.000e+000  8.030e+000
 4.053e+002  0.000e+000  8.030e+000
 3.988e+002  0.000e+000  8.030e+000
 3.924e+002  0.000e+000  8.030e+000
 3.859e+002  0.000e+000  8.030e+000
 3.794e+002  0.000e+000  8.030e+000
 3.730e+002  0.000e+000  8.030e+000
 3.665e+002  0.000e+000  8.030e+000
 3.600e+002  0.000e+000  8.030e+000
 3.536e+002  0.000e+000  8.030e+000
 3.471e+002  0.000e+000  8.030e+000
 3.406e+002  0.000e+000  8.030e+000
 3.342e+002  0.000e+000  8.030e+000
 3.277e+002  0.000e+000  8.030e+000
 3.213e+002  0.000e+000  8.030e+000
 3.148e+002  0.000e+000  8.030e+000
 3.083e+002  0.000e+000  8.030e+000
 3.019e+002  0.000e+000  8.030e+000
 2.954e+002  0.000e+000  8.030e+000
 2.916e+002  1.000e+002  8.030e+000
 2.878e+002  1.000e+002  8.030e+000
 2.840e+002  1.000e+002  8.030e+000
 2.802e+002  1.000e+002  8.030e+000
 2.764e+002  1.000e+002  8.030e+000
 2.726e+002  1.000e+002  8.030e+000
 2.689e+002  1.000e+002  8.030e+000
 2.651e+002  1.000e+002  8.030e+000
 2.613e+002  1.000e+002  8.030e+000
 2.575e+002  1.000e+002  8.030e+000
 2.537e+002  1.000e+002  8.030e+000
 2.499e+002  1.000e+002  8.030e+000
 2.461e+002  1.000e+002  8.030e+000
 2.423e+002  1.000e+002  8.030e+000
 2.385e+002  1.000e+002  8.030e+000
 2.347e+002  1.000e+002  8.030e+000
 2.309e+002  1.000e+002  8.030e+000
 2.271e+002  1.000e+002  8.030e+000
 2.233e+002  1.000e+002  8.030e+000
 2.196e+002  1.000e+002  8.030e+000
 2.158e+002  1.000e+002  8.030e+000
 2.120e+002  1.000e+002  8.030e+000
 2.082e+002  1.000e+002  8.030e+000
 2.044e+002  1.000e+002  8.030e+000
 2.006e+002  1.000e+002  8.030e+000
 1.968e+002  1.000e+002  8.030e+000
 1.930e+002  1.000e+002  8.030e+000
 1.892e+002  1.000e+002  8.030e+000
 1.854e+002  1.000e+002  8.030e+000
 1.816e+002  1.000e+002  8.030e+000