TITLE = "NODEELEMENT"
VARIABLES = "X", "Y", "Z"
ZONE N=    1331, E=    1263, F=FEPOINT, ET=QUADRILATERAL
 5.475e+002  0.000e+000  8.030e+000
 5.475e+002  0.000e+000  2.474e+000
 5.475e+002  0.000e+000 -3.081e+000
 5.475e+002  0.000e+000 -8.637e+000
 5.475e+002  0.000e+000 -1.419e+001
 5.475e+002  0.000e+000 -1.975e+001
 5.475e+002  0.000e+000 -2.530e+001
 5.475e+002  0.000e+000 -3.086e+001
 5.475e+002  0.000e+000 -3.641e+001
 5.475e+002  0.000e+000 -4.197e+001
 5.475e+002  5.263e+000  8.030e+000
 5.475e+002  5.263e+000  2.474e+000
 5.475e+002  5.263e+000 -3.081e+000
 5.475e+002  5.263e+000 -8.637e+000
 5.475e+002  5.263e+000 -1.419e+001
 5.475e+002  5.263e+000 -1.975e+001
 5.475e+002  5.263e+000 -2.530e+001
 5.475e+002  5.263e+000 -3.086e+001
 5.475e+002  5.263e+000 -3.641e+001
 5.475e+002  5.263e+000 -4.197e+001
 5.475e+002  1.053e+001  8.030e+000
 5.475e+002  1.053e+001  2.474e+000
 5.475e+002  1.053e+001 -3.081e+000
 5.475e+002  1.053e+001 -8.637e+000
 5.475e+002  1.053e+001 -1.419e+001
 5.475e+002  1.053e+001 -1.975e+001
 5.475e+002  1.053e+001 -2.530e+001
 5.475e+002  1.053e+001 -3.086e+001
 5.475e+002  1.053e+001 -3.641e+001
 5.475e+002  1.053e+001 -4.197e+001
 5.475e+002  1.579e+001  8.030e+000
 5.475e+002  1.579e+001  2.474e+000
 5.475e+002  1.579e+001 -3.081e+000
 5.475e+002  1.579e+001 -8.637e+000
 5.475e+002  1.579e+001 -1.419e+001
 5.475e+002  1.579e+001 -1.975e+001
 5.475e+002  1.579e+001 -2.530e+001
 5.475e+002  1.579e+001 -3.086e+001
 5.475e+002  1.579e+001 -3.641e+001
 5.475e+002  1.579e+001 -4.197e+001
 5.475e+002  2.105e+001  8.030e+000
 5.475e+002  2.105e+001  2.474e+000
 5.475e+002  2.105e+001 -3.081e+000
 5.475e+002  2.105e+001 -8.637e+000
 5.475e+002  2.105e+001 -1.419e+001
 5.475e+002  2.105e+001 -1.975e+001
 5.475e+002  2.105e+001 -2.530e+001
 5.475e+002  2.105e+001 -3.086e+001
 5.475e+002  2.105e+001 -3.641e+001
 5.475e+002  2.105e+001 -4.197e+001
 5.475e+002  2.632e+001  8.030e+000
 5.475e+002  2.632e+001  2.474e+000
 5.475e+002  2.632e+001 -3.081e+000
 5.475e+002  2.632e+001 -8.637e+000
 5.475e+002  2.632e+001 -1.419e+001
 5.475e+002  2.632e+001 -1.975e+001
 5.475e+002  2.632e+001 -2.530e+001
 5.475e+002  2.632e+001 -3.086e+001
 5.475e+002  2.632e+001 -3.641e+001
 5.475e+002  2.632e+001 -4.197e+001
 5.475e+002  3.158e+001  8.030e+000
 5.475e+002  3.158e+001  2.474e+000
 5.475e+002  3.158e+001 -3.081e+000
 5.475e+002  3.158e+001 -8.637e+000
 5.475e+002  3.158e+001 -1.419e+001
 5.475e+002  3.158e+001 -1.975e+001
 5.475e+002  3.158e+001 -2.530e+001
 5.475e+002  3.158e+001 -3.086e+001
 5.475e+002  3.158e+001 -3.641e+001
 5.475e+002  3.158e+001 -4.197e+001
 5.475e+002  3.684e+001  8.030e+000
 5.475e+002  3.684e+001  2.474e+000
 5.475e+002  3.684e+001 -3.081e+000
 5.475e+002  3.684e+001 -8.637e+000
 5.475e+002  3.684e+001 -1.419e+001
 5.475e+002  3.684e+001 -1.975e+001
 5.475e+002  3.684e+001 -2.530e+001
 5.475e+002  3.684e+001 -3.086e+001
 5.475e+002  3.684e+001 -3.641e+001
 5.475e+002  3.684e+001 -4.197e+001
 5.475e+002  4.211e+001  8.030e+000
 5.475e+002  4.211e+001  2.474e+000
 5.475e+002  4.211e+001 -3.081e+000
 5.475e+002  4.211e+001 -8.637e+000
 5.475e+002  4.211e+001 -1.419e+001
 5.475e+002  4.211e+001 -1.975e+001
 5.475e+002  4.211e+001 -2.530e+001
 5.475e+002  4.211e+001 -3.086e+001
 5.475e+002  4.211e+001 -3.641e+001
 5.475e+002  4.211e+001 -4.197e+001
 5.475e+002  4.737e+001  8.030e+000
 5.475e+002  4.737e+001  2.474e+000
 5.475e+002  4.737e+001 -3.081e+000
 5.475e+002  4.737e+001 -8.637e+000
 5.475e+002  4.737e+001 -1.419e+001
 5.475e+002  4.737e+001 -1.975e+001
 5.475e+002  4.737e+001 -2.530e+001
 5.475e+002  4.737e+001 -3.086e+001
 5.475e+002  4.737e+001 -3.641e+001
 5.475e+002  4.737e+001 -4.197e+001
 5.475e+002  5.263e+001  8.030e+000
 5.475e+002  5.263e+001  2.474e+000
 5.475e+002  5.263e+001 -3.081e+000
 5.475e+002  5.263e+001 -8.637e+000
 5.475e+002  5.263e+001 -1.419e+001
 5.475e+002  5.263e+001 -1.975e+001
 5.475e+002  5.263e+001 -2.530e+001
 5.475e+002  5.263e+001 -3.086e+001
 5.475e+002  5.263e+001 -3.641e+001
 5.475e+002  5.263e+001 -4.197e+001
 5.475e+002  5.789e+001  8.030e+000
 5.475e+002  5.789e+001  2.474e+000
 5.475e+002  5.789e+001 -3.081e+000
 5.475e+002  5.789e+001 -8.637e+000
 5.475e+002  5.789e+001 -1.419e+001
 5.475e+002  5.789e+001 -1.975e+001
 5.475e+002  5.789e+001 -2.530e+001
 5.475e+002  5.789e+001 -3.086e+001
 5.475e+002  5.789e+001 -3.641e+001
 5.475e+002  5.789e+001 -4.197e+001
 5.475e+002  6.316e+001  8.030e+000
 5.475e+002  6.316e+001  2.474e+000
 5.475e+002  6.316e+001 -3.081e+000
 5.475e+002  6.316e+001 -8.637e+000
 5.475e+002  6.316e+001 -1.419e+001
 5.475e+002  6.316e+001 -1.975e+001
 5.475e+002  6.316e+001 -2.530e+001
 5.475e+002  6.316e+001 -3.086e+001
 5.475e+002  6.316e+001 -3.641e+001
 5.475e+002  6.316e+001 -4.197e+001
 5.475e+002  6.842e+001  8.030e+000
 5.475e+002  6.842e+001  2.474e+000
 5.475e+002  6.842e+001 -3.081e+000
 5.475e+002  6.842e+001 -8.637e+000
 5.475e+002  6.842e+001 -1.419e+001
 5.475e+002  6.842e+001 -1.975e+001
 5.475e+002  6.842e+001 -2.530e+001
 5.475e+002  6.842e+001 -3.086e+001
 5.475e+002  6.842e+001 -3.641e+001
 5.475e+002  6.842e+001 -4.197e+001
 5.475e+002  7.368e+001  8.030e+000
 5.475e+002  7.368e+001  2.474e+000
 5.475e+002  7.368e+001 -3.081e+000
 5.475e+002  7.368e+001 -8.637e+000
 5.475e+002  7.368e+001 -1.419e+001
 5.475e+002  7.368e+001 -1.975e+001
 5.475e+002  7.368e+001 -2.530e+001
 5.475e+002  7.368e+001 -3.086e+001
 5.475e+002  7.368e+001 -3.641e+001
 5.475e+002  7.368e+001 -4.197e+001
 5.475e+002  7.895e+001  8.030e+000
 5.475e+002  7.895e+001  2.474e+000
 5.475e+002  7.895e+001 -3.081e+000
 5.475e+002  7.895e+001 -8.637e+000
 5.475e+002  7.895e+001 -1.419e+001
 5.475e+002  7.895e+001 -1.975e+001
 5.475e+002  7.895e+001 -2.530e+001
 5.475e+002  7.895e+001 -3.086e+001
 5.475e+002  7.895e+001 -3.641e+001
 5.475e+002  7.895e+001 -4.197e+001
 5.475e+002  8.421e+001  8.030e+000
 5.475e+002  8.421e+001  2.474e+000
 5.475e+002  8.421e+001 -3.081e+000
 5.475e+002  8.421e+001 -8.637e+000
 5.475e+002  8.421e+001 -1.419e+001
 5.475e+002  8.421e+001 -1.975e+001
 5.475e+002  8.421e+001 -2.530e+001
 5.475e+002  8.421e+001 -3.086e+001
 5.475e+002  8.421e+001 -3.641e+001
 5.475e+002  8.421e+001 -4.197e+001
 5.475e+002  8.947e+001  8.030e+000
 5.475e+002  8.947e+001  2.474e+000
 5.475e+002  8.947e+001 -3.081e+000
 5.475e+002  8.947e+001 -8.637e+000
 5.475e+002  8.947e+001 -1.419e+001
 5.475e+002  8.947e+001 -1.975e+001
 5.475e+002  8.947e+001 -2.530e+001
 5.475e+002  8.947e+001 -3.086e+001
 5.475e+002  8.947e+001 -3.641e+001
 5.475e+002  8.947e+001 -4.197e+001
 5.475e+002  9.474e+001  8.030e+000
 5.475e+002  9.474e+001  2.474e+000
 5.475e+002  9.474e+001 -3.081e+000
 5.475e+002  9.474e+001 -8.637e+000
 5.475e+002  9.474e+001 -1.419e+001
 5.475e+002  9.474e+001 -1.975e+001
 5.475e+002  9.474e+001 -2.530e+001
 5.475e+002  9.474e+001 -3.086e+001
 5.475e+002  9.474e+001 -3.641e+001
 5.475e+002  9.474e+001 -4.197e+001
 5.475e+002  1.000e+002  8.030e+000
 5.475e+002  1.000e+002  2.474e+000
 5.475e+002  1.000e+002 -3.081e+000
 5.475e+002  1.000e+002 -8.637e+000
 5.475e+002  1.000e+002 -1.419e+001
 5.475e+002  1.000e+002 -1.975e+001
 5.475e+002  1.000e+002 -2.530e+001
 5.475e+002  1.000e+002 -3.086e+001
 5.475e+002  1.000e+002 -3.641e+001
 5.475e+002  1.000e+002 -4.197e+001
 5.372e+002  1.000e+002  8.030e+000
 5.372e+002  1.000e+002  2.474e+000
 5.372e+002  1.000e+002 -3.081e+000
 5.372e+002  1.000e+002 -8.637e+000
 5.372e+002  1.000e+002 -1.419e+001
 5.372e+002  1.000e+002 -1.975e+001
 5.372e+002  1.000e+002 -2.530e+001
 5.372e+002  1.000e+002 -3.086e+001
 5.372e+002  1.000e+002 -3.641e+001
 5.372e+002  1.000e+002 -4.197e+001
 5.270e+002  1.000e+002  8.030e+000
 5.270e+002  1.000e+002  2.474e+000
 5.270e+002  1.000e+002 -3.081e+000
 5.270e+002  1.000e+002 -8.637e+000
 5.270e+002  1.000e+002 -1.419e+001
 5.270e+002  1.000e+002 -1.975e+001
 5.270e+002  1.000e+002 -2.530e+001
 5.270e+002  1.000e+002 -3.086e+001
 5.270e+002  1.000e+002 -3.641e+001
 5.270e+002  1.000e+002 -4.197e+001
 5.167e+002  1.000e+002  8.030e+000
 5.167e+002  1.000e+002  2.474e+000
 5.167e+002  1.000e+002 -3.081e+000
 5.167e+002  1.000e+002 -8.637e+000
 5.167e+002  1.000e+002 -1.419e+001
 5.167e+002  1.000e+002 -1.975e+001
 5.167e+002  1.000e+002 -2.530e+001
 5.167e+002  1.000e+002 -3.086e+001
 5.167e+002  1.000e+002 -3.641e+001
 5.167e+002  1.000e+002 -4.197e+001
 5.065e+002  1.000e+002  8.030e+000
 5.065e+002  1.000e+002  2.474e+000
 5.065e+002  1.000e+002 -3.081e+000
 5.065e+002  1.000e+002 -8.637e+000
 5.065e+002  1.000e+002 -1.419e+001
 5.065e+002  1.000e+002 -1.975e+001
 5.065e+002  1.000e+002 -2.530e+001
 5.065e+002  1.000e+002 -3.086e+001
 5.065e+002  1.000e+002 -3.641e+001
 5.065e+002  1.000e+002 -4.197e+001
 4.962e+002  1.000e+002  8.030e+000
 4.962e+002  1.000e+002  2.474e+000
 4.962e+002  1.000e+002 -3.081e+000
 4.962e+002  1.000e+002 -8.637e+000
 4.962e+002  1.000e+002 -1.419e+001
 4.962e+002  1.000e+002 -1.975e+001
 4.962e+002  1.000e+002 -2.530e+001
 4.962e+002  1.000e+002 -3.086e+001
 4.962e+002  1.000e+002 -3.641e+001
 4.962e+002  1.000e+002 -4.197e+001
 4.860e+002  1.000e+002  8.030e+000
 4.860e+002  1.000e+002  2.474e+000
 4.860e+002  1.000e+002 -3.081e+000
 4.860e+002  1.000e+002 -8.637e+000
 4.860e+002  1.000e+002 -1.419e+001
 4.860e+002  1.000e+002 -1.975e+001
 4.860e+002  1.000e+002 -2.530e+001
 4.860e+002  1.000e+002 -3.086e+001
 4.860e+002  1.000e+002 -3.641e+001
 4.860e+002  1.000e+002 -4.197e+001
 4.757e+002  1.000e+002  8.030e+000
 4.757e+002  1.000e+002  2.474e+000
 4.757e+002  1.000e+002 -3.081e+000
 4.757e+002  1.000e+002 -8.637e+000
 4.757e+002  1.000e+002 -1.419e+001
 4.757e+002  1.000e+002 -1.975e+001
 4.757e+002  1.000e+002 -2.530e+001
 4.757e+002  1.000e+002 -3.086e+001
 4.757e+002  1.000e+002 -3.641e+001
 4.757e+002  1.000e+002 -4.197e+001
 4.654e+002  1.000e+002  8.030e+000
 4.654e+002  1.000e+002  2.474e+000
 4.654e+002  1.000e+002 -3.081e+000
 4.654e+002  1.000e+002 -8.637e+000
 4.654e+002  1.000e+002 -1.419e+001
 4.654e+002  1.000e+002 -1.975e+001
 4.654e+002  1.000e+002 -2.530e+001
 4.654e+002  1.000e+002 -3.086e+001
 4.654e+002  1.000e+002 -3.641e+001
 4.654e+002  1.000e+002 -4.197e+001
 4.552e+002  1.000e+002  8.030e+000
 4.552e+002  1.000e+002  2.474e+000
 4.552e+002  1.000e+002 -3.081e+000
 4.552e+002  1.000e+002 -8.637e+000
 4.552e+002  1.000e+002 -1.419e+001
 4.552e+002  1.000e+002 -1.975e+001
 4.552e+002  1.000e+002 -2.530e+001
 4.552e+002  1.000e+002 -3.086e+001
 4.552e+002  1.000e+002 -3.641e+001
 4.552e+002  1.000e+002 -4.197e+001
 4.449e+002  1.000e+002  8.030e+000
 4.449e+002  1.000e+002  2.474e+000
 4.449e+002  1.000e+002 -3.081e+000
 4.449e+002  1.000e+002 -8.637e+000
 4.449e+002  1.000e+002 -1.419e+001
 4.449e+002  1.000e+002 -1.975e+001
 4.449e+002  1.000e+002 -2.530e+001
 4.449e+002  1.000e+002 -3.086e+001
 4.449e+002  1.000e+002 -3.641e+001
 4.449e+002  1.000e+002 -4.197e+001
 4.347e+002  1.000e+002  8.030e+000
 4.347e+002  1.000e+002  2.474e+000
 4.347e+002  1.000e+002 -3.081e+000
 4.347e+002  1.000e+002 -8.637e+000
 4.347e+002  1.000e+002 -1.419e+001
 4.347e+002  1.000e+002 -1.975e+001
 4.347e+002  1.000e+002 -2.530e+001
 4.347e+002  1.000e+002 -3.086e+001
 4.347e+002  1.000e+002 -3.641e+001
 4.347e+002  1.000e+002 -4.197e+001
 4.244e+002  1.000e+002  8.030e+000
 4.244e+002  1.000e+002  2.474e+000
 4.244e+002  1.000e+002 -3.081e+000
 4.244e+002  1.000e+002 -8.637e+000
 4.244e+002  1.000e+002 -1.419e+001
 4.244e+002  1.000e+002 -1.975e+001
 4.244e+002  1.000e+002 -2.530e+001
 4.244e+002  1.000e+002 -3.086e+001
 4.244e+002  1.000e+002 -3.641e+001
 4.244e+002  1.000e+002 -4.197e+001
 4.142e+002  1.000e+002  8.030e+000
 4.142e+002  1.000e+002  2.474e+000
 4.142e+002  1.000e+002 -3.081e+000
 4.142e+002  1.000e+002 -8.637e+000
 4.142e+002  1.000e+002 -1.419e+001
 4.142e+002  1.000e+002 -1.975e+001
 4.142e+002  1.000e+002 -2.530e+001
 4.142e+002  1.000e+002 -3.086e+001
 4.142e+002  1.000e+002 -3.641e+001
 4.142e+002  1.000e+002 -4.197e+001
 4.039e+002  1.000e+002  8.030e+000
 4.039e+002  1.000e+002  2.474e+000
 4.039e+002  1.000e+002 -3.081e+000
 4.039e+002  1.000e+002 -8.637e+000
 4.039e+002  1.000e+002 -1.419e+001
 4.039e+002  1.000e+002 -1.975e+001
 4.039e+002  1.000e+002 -2.530e+001
 4.039e+002  1.000e+002 -3.086e+001
 4.039e+002  1.000e+002 -3.641e+001
 4.039e+002  1.000e+002 -4.197e+001
 3.937e+002  1.000e+002  8.030e+000
 3.937e+002  1.000e+002  2.474e+000
 3.937e+002  1.000e+002 -3.081e+000
 3.937e+002  1.000e+002 -8.637e+000
 3.937e+002  1.000e+002 -1.419e+001
 3.937e+002  1.000e+002 -1.975e+001
 3.937e+002  1.000e+002 -2.530e+001
 3.937e+002  1.000e+002 -3.086e+001
 3.937e+002  1.000e+002 -3.641e+001
 3.937e+002  1.000e+002 -4.197e+001
 3.834e+002  1.000e+002  8.030e+000
 3.834e+002  1.000e+002  2.474e+000
 3.834e+002  1.000e+002 -3.081e+000
 3.834e+002  1.000e+002 -8.637e+000
 3.834e+002  1.000e+002 -1.419e+001
 3.834e+002  1.000e+002 -1.975e+001
 3.834e+002  1.000e+002 -2.530e+001
 3.834e+002  1.000e+002 -3.086e+001
 3.834e+002  1.000e+002 -3.641e+001
 3.834e+002  1.000e+002 -4.197e+001
 3.731e+002  1.000e+002  8.030e+000
 3.731e+002  1.000e+002  2.474e+000
 3.731e+002  1.000e+002 -3.081e+000
 3.731e+002  1.000e+002 -8.637e+000
 3.731e+002  1.000e+002 -1.419e+001
 3.731e+002  1.000e+002 -1.975e+001
 3.731e+002  1.000e+002 -2.530e+001
 3.731e+002  1.000e+002 -3.086e+001
 3.731e+002  1.000e+002 -3.641e+001
 3.731e+002  1.000e+002 -4.197e+001
 3.629e+002  1.000e+002  8.030e+000
 3.629e+002  1.000e+002  2.474e+000
 3.629e+002  1.000e+002 -3.081e+000
 3.629e+002  1.000e+002 -8.637e+000
 3.629e+002  1.000e+002 -1.419e+001
 3.629e+002  1.000e+002 -1.975e+001
 3.629e+002  1.000e+002 -2.530e+001
 3.629e+002  1.000e+002 -3.086e+001
 3.629e+002  1.000e+002 -3.641e+001
 3.629e+002  1.000e+002 -4.197e+001
 3.526e+002  1.000e+002  8.030e+000
 3.526e+002  1.000e+002  2.474e+000
 3.526e+002  1.000e+002 -3.081e+000
 3.526e+002  1.000e+002 -8.637e+000
 3.526e+002  1.000e+002 -1.419e+001
 3.526e+002  1.000e+002 -1.975e+001
 3.526e+002  1.000e+002 -2.530e+001
 3.526e+002  1.000e+002 -3.086e+001
 3.526e+002  1.000e+002 -3.641e+001
 3.526e+002  1.000e+002 -4.197e+001
 3.424e+002  1.000e+002  8.030e+000
 3.424e+002  1.000e+002  2.474e+000
 3.424e+002  1.000e+002 -3.081e+000
 3.424e+002  1.000e+002 -8.637e+000
 3.424e+002  1.000e+002 -1.419e+001
 3.424e+002  1.000e+002 -1.975e+001
 3.424e+002  1.000e+002 -2.530e+001
 3.424e+002  1.000e+002 -3.086e+001
 3.424e+002  1.000e+002 -3.641e+001
 3.424e+002  1.000e+002 -4.197e+001
 3.321e+002  1.000e+002  8.030e+000
 3.321e+002  1.000e+002  2.474e+000
 3.321e+002  1.000e+002 -3.081e+000
 3.321e+002  1.000e+002 -8.637e+000
 3.321e+002  1.000e+002 -1.419e+001
 3.321e+002  1.000e+002 -1.975e+001
 3.321e+002  1.000e+002 -2.530e+001
 3.321e+002  1.000e+002 -3.086e+001
 3.321e+002  1.000e+002 -3.641e+001
 3.321e+002  1.000e+002 -4.197e+001
 3.219e+002  1.000e+002  8.030e+000
 3.219e+002  1.000e+002  2.474e+000
 3.219e+002  1.000e+002 -3.081e+000
 3.219e+002  1.000e+002 -8.637e+000
 3.219e+002  1.000e+002 -1.419e+001
 3.219e+002  1.000e+002 -1.975e+001
 3.219e+002  1.000e+002 -2.530e+001
 3.219e+002  1.000e+002 -3.086e+001
 3.219e+002  1.000e+002 -3.641e+001
 3.219e+002  1.000e+002 -4.197e+001
 3.116e+002  1.000e+002  8.030e+000
 3.116e+002  1.000e+002  2.474e+000
 3.116e+002  1.000e+002 -3.081e+000
 3.116e+002  1.000e+002 -8.637e+000
 3.116e+002  1.000e+002 -1.419e+001
 3.116e+002  1.000e+002 -1.975e+001
 3.116e+002  1.000e+002 -2.530e+001
 3.116e+002  1.000e+002 -3.086e+001
 3.116e+002  1.000e+002 -3.641e+001
 3.116e+002  1.000e+002 -4.197e+001
 3.013e+002  1.000e+002  8.030e+000
 3.013e+002  1.000e+002  2.474e+000
 3.013e+002  1.000e+002 -3.081e+000
 3.013e+002  1.000e+002 -8.637e+000
 3.013e+002  1.000e+002 -1.419e+001
 3.013e+002  1.000e+002 -1.975e+001
 3.013e+002  1.000e+002 -2.530e+001
 3.013e+002  1.000e+002 -3.086e+001
 3.013e+002  1.000e+002 -3.641e+001
 3.013e+002  1.000e+002 -4.197e+001
 2.911e+002  1.000e+002  8.030e+000
 2.911e+002  1.000e+002  2.474e+000
 2.911e+002  1.000e+002 -3.081e+000
 2.911e+002  1.000e+002 -8.637e+000
 2.911e+002  1.000e+002 -1.419e+001
 2.911e+002  1.000e+002 -1.975e+001
 2.911e+002  1.000e+002 -2.530e+001
 2.911e+002  1.000e+002 -3.086e+001
 2.911e+002  1.000e+002 -3.641e+001
 2.911e+002  1.000e+002 -4.197e+001
 2.808e+002  1.000e+002  8.030e+000
 2.808e+002  1.000e+002  2.474e+000
 2.808e+002  1.000e+002 -3.081e+000
 2.808e+002  1.000e+002 -8.637e+000
 2.808e+002  1.000e+002 -1.419e+001
 2.808e+002  1.000e+002 -1.975e+001
 2.808e+002  1.000e+002 -2.530e+001
 2.808e+002  1.000e+002 -3.086e+001
 2.808e+002  1.000e+002 -3.641e+001
 2.808e+002  1.000e+002 -4.197e+001
 2.706e+002  1.000e+002  8.030e+000
 2.706e+002  1.000e+002  2.474e+000
 2.706e+002  1.000e+002 -3.081e+000
 2.706e+002  1.000e+002 -8.637e+000
 2.706e+002  1.000e+002 -1.419e+001
 2.706e+002  1.000e+002 -1.975e+001
 2.706e+002  1.000e+002 -2.530e+001
 2.706e+002  1.000e+002 -3.086e+001
 2.706e+002  1.000e+002 -3.641e+001
 2.706e+002  1.000e+002 -4.197e+001
 2.603e+002  1.000e+002  8.030e+000
 2.603e+002  1.000e+002  2.474e+000
 2.603e+002  1.000e+002 -3.081e+000
 2.603e+002  1.000e+002 -8.637e+000
 2.603e+002  1.000e+002 -1.419e+001
 2.603e+002  1.000e+002 -1.975e+001
 2.603e+002  1.000e+002 -2.530e+001
 2.603e+002  1.000e+002 -3.086e+001
 2.603e+002  1.000e+002 -3.641e+001
 2.603e+002  1.000e+002 -4.197e+001
 2.501e+002  1.000e+002  8.030e+000
 2.501e+002  1.000e+002  2.474e+000
 2.501e+002  1.000e+002 -3.081e+000
 2.501e+002  1.000e+002 -8.637e+000
 2.501e+002  1.000e+002 -1.419e+001
 2.501e+002  1.000e+002 -1.975e+001
 2.501e+002  1.000e+002 -2.530e+001
 2.501e+002  1.000e+002 -3.086e+001
 2.501e+002  1.000e+002 -3.641e+001
 2.501e+002  1.000e+002 -4.197e+001
 2.398e+002  1.000e+002  8.030e+000
 2.398e+002  1.000e+002  2.474e+000
 2.398e+002  1.000e+002 -3.081e+000
 2.398e+002  1.000e+002 -8.637e+000
 2.398e+002  1.000e+002 -1.419e+001
 2.398e+002  1.000e+002 -1.975e+001
 2.398e+002  1.000e+002 -2.530e+001
 2.398e+002  1.000e+002 -3.086e+001
 2.398e+002  1.000e+002 -3.641e+001
 2.398e+002  1.000e+002 -4.197e+001
 2.296e+002  1.000e+002  8.030e+000
 2.296e+002  1.000e+002  2.474e+000
 2.296e+002  1.000e+002 -3.081e+000
 2.296e+002  1.000e+002 -8.637e+000
 2.296e+002  1.000e+002 -1.419e+001
 2.296e+002  1.000e+002 -1.975e+001
 2.296e+002  1.000e+002 -2.530e+001
 2.296e+002  1.000e+002 -3.086e+001
 2.296e+002  1.000e+002 -3.641e+001
 2.296e+002  1.000e+002 -4.197e+001
 2.193e+002  1.000e+002  8.030e+000
 2.193e+002  1.000e+002  2.474e+000
 2.193e+002  1.000e+002 -3.081e+000
 2.193e+002  1.000e+002 -8.637e+000
 2.193e+002  1.000e+002 -1.419e+001
 2.193e+002  1.000e+002 -1.975e+001
 2.193e+002  1.000e+002 -2.530e+001
 2.193e+002  1.000e+002 -3.086e+001
 2.193e+002  1.000e+002 -3.641e+001
 2.193e+002  1.000e+002 -4.197e+001
 2.090e+002  1.000e+002  8.030e+000
 2.090e+002  1.000e+002  2.474e+000
 2.090e+002  1.000e+002 -3.081e+000
 2.090e+002  1.000e+002 -8.637e+000
 2.090e+002  1.000e+002 -1.419e+001
 2.090e+002  1.000e+002 -1.975e+001
 2.090e+002  1.000e+002 -2.530e+001
 2.090e+002  1.000e+002 -3.086e+001
 2.090e+002  1.000e+002 -3.641e+001
 2.090e+002  1.000e+002 -4.197e+001
 1.988e+002  1.000e+002  8.030e+000
 1.988e+002  1.000e+002  2.474e+000
 1.988e+002  1.000e+002 -3.081e+000
 1.988e+002  1.000e+002 -8.637e+000
 1.988e+002  1.000e+002 -1.419e+001
 1.988e+002  1.000e+002 -1.975e+001
 1.988e+002  1.000e+002 -2.530e+001
 1.988e+002  1.000e+002 -3.086e+001
 1.988e+002  1.000e+002 -3.641e+001
 1.988e+002  1.000e+002 -4.197e+001
 1.885e+002  1.000e+002  8.030e+000
 1.885e+002  1.000e+002  2.474e+000
 1.885e+002  1.000e+002 -3.081e+000
 1.885e+002  1.000e+002 -8.637e+000
 1.885e+002  1.000e+002 -1.419e+001
 1.885e+002  1.000e+002 -1.975e+001
 1.885e+002  1.000e+002 -2.530e+001
 1.885e+002  1.000e+002 -3.086e+001
 1.885e+002  1.000e+002 -3.641e+001
 1.885e+002  1.000e+002 -4.197e+001
 1.783e+002  1.000e+002  8.030e+000
 1.783e+002  1.000e+002  2.474e+000
 1.783e+002  1.000e+002 -3.081e+000
 1.783e+002  1.000e+002 -8.637e+000
 1.783e+002  1.000e+002 -1.419e+001
 1.783e+002  1.000e+002 -1.975e+001
 1.783e+002  1.000e+002 -2.530e+001
 1.783e+002  1.000e+002 -3.086e+001
 1.783e+002  1.000e+002 -3.641e+001
 1.783e+002  1.000e+002 -4.197e+001
 1.680e+002  1.000e+002  8.030e+000
 1.680e+002  1.000e+002  2.474e+000
 1.680e+002  1.000e+002 -3.081e+000
 1.680e+002  1.000e+002 -8.637e+000
 1.680e+002  1.000e+002 -1.419e+001
 1.680e+002  1.000e+002 -1.975e+001
 1.680e+002  1.000e+002 -2.530e+001
 1.680e+002  1.000e+002 -3.086e+001
 1.680e+002  1.000e+002 -3.641e+001
 1.680e+002  1.000e+002 -4.197e+001
 1.578e+002  1.000e+002  8.030e+000
 1.578e+002  1.000e+002  2.474e+000
 1.578e+002  1.000e+002 -3.081e+000
 1.578e+002  1.000e+002 -8.637e+000
 1.578e+002  1.000e+002 -1.419e+001
 1.578e+002  1.000e+002 -1.975e+001
 1.578e+002  1.000e+002 -2.530e+001
 1.578e+002  1.000e+002 -3.086e+001
 1.578e+002  1.000e+002 -3.641e+001
 1.578e+002  1.000e+002 -4.197e+001
 1.475e+002  1.000e+002  8.030e+000
 1.475e+002  1.000e+002  2.474e+000
 1.475e+002  1.000e+002 -3.081e+000
 1.475e+002  1.000e+002 -8.637e+000
 1.475e+002  1.000e+002 -1.419e+001
 1.475e+002  1.000e+002 -1.975e+001
 1.475e+002  1.000e+002 -2.530e+001
 1.475e+002  1.000e+002 -3.086e+001
 1.475e+002  1.000e+002 -3.641e+001
 1.475e+002  1.000e+002 -4.197e+001
 5.372e+002  9.474e+001 -4.197e+001
 5.372e+002  8.947e+001 -4.197e+001
 5.372e+002  8.421e+001 -4.197e+001
 5.372e+002  7.895e+001 -4.197e+001
 5.372e+002  7.368e+001 -4.197e+001
 5.372e+002  6.842e+001 -4.197e+001
 5.372e+002  6.316e+001 -4.197e+001
 5.372e+002  5.789e+001 -4.197e+001
 5.372e+002  5.263e+001 -4.197e+001
 5.372e+002  4.737e+001 -4.197e+001
 5.372e+002  4.211e+001 -4.197e+001
 5.372e+002  3.684e+001 -4.197e+001
 5.372e+002  3.158e+001 -4.197e+001
 5.372e+002  2.632e+001 -4.197e+001
 5.372e+002  2.105e+001 -4.197e+001
 5.372e+002  1.579e+001 -4.197e+001
 5.372e+002  1.053e+001 -4.197e+001
 5.372e+002  5.263e+000 -4.197e+001
 5.372e+002  0.000e+000 -4.197e+001
 5.270e+002  9.474e+001 -4.197e+001
 5.270e+002  8.947e+001 -4.197e+001
 5.270e+002  8.421e+001 -4.197e+001
 5.270e+002  7.895e+001 -4.197e+001
 5.270e+002  7.368e+001 -4.197e+001
 5.270e+002  6.842e+001 -4.197e+001
 5.270e+002  6.316e+001 -4.197e+001
 5.270e+002  5.789e+001 -4.197e+001
 5.270e+002  5.263e+001 -4.197e+001
 5.270e+002  4.737e+001 -4.197e+001
 5.270e+002  4.211e+001 -4.197e+001
 5.270e+002  3.684e+001 -4.197e+001
 5.270e+002  3.158e+001 -4.197e+001
 5.270e+002  2.632e+001 -4.197e+001
 5.270e+002  2.105e+001 -4.197e+001
 5.270e+002  1.579e+001 -4.197e+001
 5.270e+002  1.053e+001 -4.197e+001
 5.270e+002  5.263e+000 -4.197e+001
 5.270e+002  0.000e+000 -4.197e+001
 5.167e+002  9.474e+001 -4.197e+001
 5.167e+002  8.947e+001 -4.197e+001
 5.167e+002  8.421e+001 -4.197e+001
 5.167e+002  7.895e+001 -4.197e+001
 5.167e+002  7.368e+001 -4.197e+001
 5.167e+002  6.842e+001 -4.197e+001
 5.167e+002  6.316e+001 -4.197e+001
 5.167e+002  5.789e+001 -4.197e+001
 5.167e+002  5.263e+001 -4.197e+001
 5.167e+002  4.737e+001 -4.197e+001
 5.167e+002  4.211e+001 -4.197e+001
 5.167e+002  3.684e+001 -4.197e+001
 5.167e+002  3.158e+001 -4.197e+001
 5.167e+002  2.632e+001 -4.197e+001
 5.167e+002  2.105e+001 -4.197e+001
 5.167e+002  1.579e+001 -4.197e+001
 5.167e+002  1.053e+001 -4.197e+001
 5.167e+002  5.263e+000 -4.197e+001
 5.167e+002  0.000e+000 -4.197e+001
 5.065e+002  9.474e+001 -4.197e+001
 5.065e+002  8.947e+001 -4.197e+001
 5.065e+002  8.421e+001 -4.197e+001
 5.065e+002  7.895e+001 -4.197e+001
 5.065e+002  7.368e+001 -4.197e+001
 5.065e+002  6.842e+001 -4.197e+001
 5.065e+002  6.316e+001 -4.197e+001
 5.065e+002  5.789e+001 -4.197e+001
 5.065e+002  5.263e+001 -4.197e+001
 5.065e+002  4.737e+001 -4.197e+001
 5.065e+002  4.211e+001 -4.197e+001
 5.065e+002  3.684e+001 -4.197e+001
 5.065e+002  3.158e+001 -4.197e+001
 5.065e+002  2.632e+001 -4.197e+001
 5.065e+002  2.105e+001 -4.197e+001
 5.065e+002  1.579e+001 -4.197e+001
 5.065e+002  1.053e+001 -4.197e+001
 5.065e+002  5.263e+000 -4.197e+001
 5.065e+002  0.000e+000 -4.197e+001
 4.962e+002  9.474e+001 -4.197e+001
 4.962e+002  8.947e+001 -4.197e+001
 4.962e+002  8.421e+001 -4.197e+001
 4.962e+002  7.895e+001 -4.197e+001
 4.962e+002  7.368e+001 -4.197e+001
 4.962e+002  6.842e+001 -4.197e+001
 4.962e+002  6.316e+001 -4.197e+001
 4.962e+002  5.789e+001 -4.197e+001
 4.962e+002  5.263e+001 -4.197e+001
 4.962e+002  4.737e+001 -4.197e+001
 4.962e+002  4.211e+001 -4.197e+001
 4.962e+002  3.684e+001 -4.197e+001
 4.962e+002  3.158e+001 -4.197e+001
 4.962e+002  2.632e+001 -4.197e+001
 4.962e+002  2.105e+001 -4.197e+001
 4.962e+002  1.579e+001 -4.197e+001
 4.962e+002  1.053e+001 -4.197e+001
 4.962e+002  5.263e+000 -4.197e+001
 4.962e+002  0.000e+000 -4.197e+001
 4.860e+002  9.474e+001 -4.197e+001
 4.860e+002  8.947e+001 -4.197e+001
 4.860e+002  8.421e+001 -4.197e+001
 4.860e+002  7.895e+001 -4.197e+001
 4.860e+002  7.368e+001 -4.197e+001
 4.860e+002  6.842e+001 -4.197e+001
 4.860e+002  6.316e+001 -4.197e+001
 4.860e+002  5.789e+001 -4.197e+001
 4.860e+002  5.263e+001 -4.197e+001
 4.860e+002  4.737e+001 -4.197e+001
 4.860e+002  4.211e+001 -4.197e+001
 4.860e+002  3.684e+001 -4.197e+001
 4.860e+002  3.158e+001 -4.197e+001
 4.860e+002  2.632e+001 -4.197e+001
 4.860e+002  2.105e+001 -4.197e+001
 4.860e+002  1.579e+001 -4.197e+001
 4.860e+002  1.053e+001 -4.197e+001
 4.860e+002  5.263e+000 -4.197e+001
 4.860e+002  0.000e+000 -4.197e+001
 4.757e+002  9.474e+001 -4.197e+001
 4.757e+002  8.947e+001 -4.197e+001
 4.757e+002  8.421e+001 -4.197e+001
 4.757e+002  7.895e+001 -4.197e+001
 4.757e+002  7.368e+001 -4.197e+001
 4.757e+002  6.842e+001 -4.197e+001
 4.757e+002  6.316e+001 -4.197e+001
 4.757e+002  5.789e+001 -4.197e+001
 4.757e+002  5.263e+001 -4.197e+001
 4.757e+002  4.737e+001 -4.197e+001
 4.757e+002  4.211e+001 -4.197e+001
 4.757e+002  3.684e+001 -4.197e+001
 4.757e+002  3.158e+001 -4.197e+001
 4.757e+002  2.632e+001 -4.197e+001
 4.757e+002  2.105e+001 -4.197e+001
 4.757e+002  1.579e+001 -4.197e+001
 4.757e+002  1.053e+001 -4.197e+001
 4.757e+002  5.263e+000 -4.197e+001
 4.757e+002  0.000e+000 -4.197e+001
 4.654e+002  9.474e+001 -4.197e+001
 4.654e+002  8.947e+001 -4.197e+001
 4.654e+002  8.421e+001 -4.197e+001
 4.654e+002  7.895e+001 -4.197e+001
 4.654e+002  7.368e+001 -4.197e+001
 4.654e+002  6.842e+001 -4.197e+001
 4.654e+002  6.316e+001 -4.197e+001
 4.654e+002  5.789e+001 -4.197e+001
 4.654e+002  5.263e+001 -4.197e+001
 4.654e+002  4.737e+001 -4.197e+001
 4.654e+002  4.211e+001 -4.197e+001
 4.654e+002  3.684e+001 -4.197e+001
 4.654e+002  3.158e+001 -4.197e+001
 4.654e+002  2.632e+001 -4.197e+001
 4.654e+002  2.105e+001 -4.197e+001
 4.654e+002  1.579e+001 -4.197e+001
 4.654e+002  1.053e+001 -4.197e+001
 4.654e+002  5.263e+000 -4.197e+001
 4.654e+002  0.000e+000 -4.197e+001
 4.552e+002  9.474e+001 -4.197e+001
 4.552e+002  8.947e+001 -4.197e+001
 4.552e+002  8.421e+001 -4.197e+001
 4.552e+002  7.895e+001 -4.197e+001
 4.552e+002  7.368e+001 -4.197e+001
 4.552e+002  6.842e+001 -4.197e+001
 4.552e+002  6.316e+001 -4.197e+001
 4.552e+002  5.789e+001 -4.197e+001
 4.552e+002  5.263e+001 -4.197e+001
 4.552e+002  4.737e+001 -4.197e+001
 4.552e+002  4.211e+001 -4.197e+001
 4.552e+002  3.684e+001 -4.197e+001
 4.552e+002  3.158e+001 -4.197e+001
 4.552e+002  2.632e+001 -4.197e+001
 4.552e+002  2.105e+001 -4.197e+001
 4.552e+002  1.579e+001 -4.197e+001
 4.552e+002  1.053e+001 -4.197e+001
 4.552e+002  5.263e+000 -4.197e+001
 4.552e+002  0.000e+000 -4.197e+001
 4.449e+002  9.474e+001 -4.197e+001
 4.449e+002  8.947e+001 -4.197e+001
 4.449e+002  8.421e+001 -4.197e+001
 4.449e+002  7.895e+001 -4.197e+001
 4.449e+002  7.368e+001 -4.197e+001
 4.449e+002  6.842e+001 -4.197e+001
 4.449e+002  6.316e+001 -4.197e+001
 4.449e+002  5.789e+001 -4.197e+001
 4.449e+002  5.263e+001 -4.197e+001
 4.449e+002  4.737e+001 -4.197e+001
 4.449e+002  4.211e+001 -4.197e+001
 4.449e+002  3.684e+001 -4.197e+001
 4.449e+002  3.158e+001 -4.197e+001
 4.449e+002  2.632e+001 -4.197e+001
 4.449e+002  2.105e+001 -4.197e+001
 4.449e+002  1.579e+001 -4.197e+001
 4.449e+002  1.053e+001 -4.197e+001
 4.449e+002  5.263e+000 -4.197e+001
 4.449e+002  0.000e+000 -4.197e+001
 4.347e+002  9.474e+001 -4.197e+001
 4.347e+002  8.947e+001 -4.197e+001
 4.347e+002  8.421e+001 -4.197e+001
 4.347e+002  7.895e+001 -4.197e+001
 4.347e+002  7.368e+001 -4.197e+001
 4.347e+002  6.842e+001 -4.197e+001
 4.347e+002  6.316e+001 -4.197e+001
 4.347e+002  5.789e+001 -4.197e+001
 4.347e+002  5.263e+001 -4.197e+001
 4.347e+002  4.737e+001 -4.197e+001
 4.347e+002  4.211e+001 -4.197e+001
 4.347e+002  3.684e+001 -4.197e+001
 4.347e+002  3.158e+001 -4.197e+001
 4.347e+002  2.632e+001 -4.197e+001
 4.347e+002  2.105e+001 -4.197e+001
 4.347e+002  1.579e+001 -4.197e+001
 4.347e+002  1.053e+001 -4.197e+001
 4.347e+002  5.263e+000 -4.197e+001
 4.347e+002  0.000e+000 -4.197e+001
 4.244e+002  9.474e+001 -4.197e+001
 4.244e+002  8.947e+001 -4.197e+001
 4.244e+002  8.421e+001 -4.197e+001
 4.244e+002  7.895e+001 -4.197e+001
 4.244e+002  7.368e+001 -4.197e+001
 4.244e+002  6.842e+001 -4.197e+001
 4.244e+002  6.316e+001 -4.197e+001
 4.244e+002  5.789e+001 -4.197e+001
 4.244e+002  5.263e+001 -4.197e+001
 4.244e+002  4.737e+001 -4.197e+001
 4.244e+002  4.211e+001 -4.197e+001
 4.244e+002  3.684e+001 -4.197e+001
 4.244e+002  3.158e+001 -4.197e+001
 4.244e+002  2.632e+001 -4.197e+001
 4.244e+002  2.105e+001 -4.197e+001
 4.244e+002  1.579e+001 -4.197e+001
 4.244e+002  1.053e+001 -4.197e+001
 4.244e+002  5.263e+000 -4.197e+001
 4.244e+002  0.000e+000 -4.197e+001
 4.142e+002  9.474e+001 -4.197e+001
 4.142e+002  8.947e+001 -4.197e+001
 4.142e+002  8.421e+001 -4.197e+001
 4.142e+002  7.895e+001 -4.197e+001
 4.142e+002  7.368e+001 -4.197e+001
 4.142e+002  6.842e+001 -4.197e+001
 4.142e+002  6.316e+001 -4.197e+001
 4.142e+002  5.789e+001 -4.197e+001
 4.142e+002  5.263e+001 -4.197e+001
 4.142e+002  4.737e+001 -4.197e+001
 4.142e+002  4.211e+001 -4.197e+001
 4.142e+002  3.684e+001 -4.197e+001