TITLE = "NODEELEMENT"
VARIABLES = "X", "Y", "Z"
ZONE N = 2445, E = 2328, F = FEPOINT, ET = QUADRILATERAL
      54.85        50.7         -30 
     -54.85        50.7         -30 
      51.89        50.7         -30 
      48.92        50.7         -30 
      45.96        50.7         -30 
      42.99        50.7         -30 
      40.03        50.7         -30 
      37.06        50.7         -30 
       34.1        50.7         -30 
      31.13        50.7         -30 
      28.17        50.7         -30 
       25.2        50.7         -30 
      22.24        50.7         -30 
      19.27        50.7         -30 
      16.31        50.7         -30 
      13.34        50.7         -30 
      10.38        50.7         -30 
      7.412        50.7         -30 
      4.447        50.7         -30 
      1.482        50.7         -30 
     -1.482        50.7         -30 
     -4.447        50.7         -30 
     -7.412        50.7         -30 
     -10.38        50.7         -30 
     -13.34        50.7         -30 
     -16.31        50.7         -30 
     -19.27        50.7         -30 
     -22.24        50.7         -30 
      -25.2        50.7         -30 
     -28.17        50.7         -30 
     -31.13        50.7         -30 
      -34.1        50.7         -30 
     -37.06        50.7         -30 
     -40.03        50.7         -30 
     -42.99        50.7         -30 
     -45.96        50.7         -30 
     -48.92        50.7         -30 
     -51.89        50.7         -30 
     -54.85        50.7           0 
     -54.85        50.7         -27 
     -54.85        50.7         -24 
     -54.85        50.7         -21 
     -54.85        50.7         -18 
     -54.85        50.7         -15 
     -54.85        50.7         -12 
     -54.85        50.7          -9 
     -54.85        50.7          -6 
     -54.85        50.7          -3 
      54.85        50.7           0 
      51.89        50.7           0 
      48.92        50.7           0 
      45.96        50.7           0 
      42.99        50.7           0 
      40.03        50.7           0 
      37.06        50.7           0 
       34.1        50.7           0 
      31.13        50.7           0 
      28.17        50.7           0 
       25.2        50.7           0 
      22.24        50.7           0 
      19.27        50.7           0 
      16.31        50.7           0 
      13.34        50.7           0 
      10.38        50.7           0 
      7.412        50.7           0 
      4.447        50.7           0 
      1.482        50.7           0 
     -1.482        50.7           0 
     -4.447        50.7           0 
     -7.412        50.7           0 
     -10.38        50.7           0 
     -13.34        50.7           0 
     -16.31        50.7           0 
     -19.27        50.7           0 
     -22.24        50.7           0 
      -25.2        50.7           0 
     -28.17        50.7           0 
     -31.13        50.7           0 
      -34.1        50.7           0 
     -37.06        50.7           0 
     -40.03        50.7           0 
     -42.99        50.7           0 
     -45.96        50.7           0 
     -48.92        50.7           0 
     -51.89        50.7           0 
      54.85        50.7         -27 
      54.85        50.7         -24 
      54.85        50.7         -21 
      54.85        50.7         -18 
      54.85        50.7         -15 
      54.85        50.7         -12 
      54.85        50.7          -9 
      54.85        50.7          -6 
      54.85        50.7          -3 
      51.89        50.7         -27 
      51.89        50.7         -24 
      51.89        50.7         -21 
      51.89        50.7         -18 
      51.89        50.7         -15 
      51.89        50.7         -12 
      51.89        50.7          -9 
      51.89        50.7          -6 
      51.89        50.7          -3 
      48.92        50.7         -27 
      48.92        50.7         -24 
      48.92        50.7         -21 
      48.92        50.7         -18 
      48.92        50.7         -15 
      48.92        50.7         -12 
      48.92        50.7          -9 
      48.92        50.7          -6 
      48.92        50.7          -3 
      45.96        50.7         -27 
      45.96        50.7         -24 
      45.96        50.7         -21 
      45.96        50.7         -18 
      45.96        50.7         -15 
      45.96        50.7         -12 
      45.96        50.7          -9 
      45.96        50.7          -6 
      45.96        50.7          -3 
      42.99        50.7         -27 
      42.99        50.7         -24 
      42.99        50.7         -21 
      42.99        50.7         -18 
      42.99        50.7         -15 
      42.99        50.7         -12 
      42.99        50.7          -9 
      42.99        50.7          -6 
      42.99        50.7          -3 
      40.03        50.7         -27 
      40.03        50.7         -24 
      40.03        50.7         -21 
      40.03        50.7         -18 
      40.03        50.7         -15 
      40.03        50.7         -12 
      40.03        50.7          -9 
      40.03        50.7          -6 
      40.03        50.7          -3 
      37.06        50.7         -27 
      37.06        50.7         -24 
      37.06        50.7         -21 
      37.06        50.7         -18 
      37.06        50.7         -15 
      37.06        50.7         -12 
      37.06        50.7          -9 
      37.06        50.7          -6 
      37.06        50.7          -3 
       34.1        50.7         -27 
       34.1        50.7         -24 
       34.1        50.7         -21 
       34.1        50.7         -18 
       34.1        50.7         -15 
       34.1        50.7         -12 
       34.1        50.7          -9 
       34.1        50.7          -6 
       34.1        50.7          -3 
      31.13        50.7         -27 
      31.13        50.7         -24 
      31.13        50.7         -21 
      31.13        50.7         -18 
      31.13        50.7         -15 
      31.13        50.7         -12 
      31.13        50.7          -9 
      31.13        50.7          -6 
      31.13        50.7          -3 
      28.17        50.7         -27 
      28.17        50.7         -24 
      28.17        50.7         -21 
      28.17        50.7         -18 
      28.17        50.7         -15 
      28.17        50.7         -12 
      28.17        50.7          -9 
      28.17        50.7          -6 
      28.17        50.7          -3 
       25.2        50.7         -27 
       25.2        50.7         -24 
       25.2        50.7         -21 
       25.2        50.7         -18 
       25.2        50.7         -15 
       25.2        50.7         -12 
       25.2        50.7          -9 
       25.2        50.7          -6 
       25.2        50.7          -3 
      22.24        50.7         -27 
      22.24        50.7         -24 
      22.24        50.7         -21 
      22.24        50.7         -18 
      22.24        50.7         -15 
      22.24        50.7         -12 
      22.24        50.7          -9 
      22.24        50.7          -6 
      22.24        50.7          -3 
      19.27        50.7         -27 
      19.27        50.7         -24 
      19.27        50.7         -21 
      19.27        50.7         -18 
      19.27        50.7         -15 
      19.27        50.7         -12 
      19.27        50.7          -9 
      19.27        50.7          -6 
      19.27        50.7          -3 
      16.31        50.7         -27 
      16.31        50.7         -24 
      16.31        50.7         -21 
      16.31        50.7         -18 
      16.31        50.7         -15 
      16.31        50.7         -12 
      16.31        50.7          -9 
      16.31        50.7          -6 
      16.31        50.7          -3 
      13.34        50.7         -27 
      13.34        50.7         -24 
      13.34        50.7         -21 
      13.34        50.7         -18 
      13.34        50.7         -15 
      13.34        50.7         -12 
      13.34        50.7          -9 
      13.34        50.7          -6 
      13.34        50.7          -3 
      10.38        50.7         -27 
      10.38        50.7         -24 
      10.38        50.7         -21 
      10.38        50.7         -18 
      10.38        50.7         -15 
      10.38        50.7         -12 
      10.38        50.7          -9 
      10.38        50.7          -6 
      10.38        50.7          -3 
      7.412        50.7         -27 
      7.412        50.7         -24 
      7.412        50.7         -21 
      7.412        50.7         -18 
      7.412        50.7         -15 
      7.412        50.7         -12 
      7.412        50.7          -9 
      7.412        50.7          -6 
      7.412        50.7          -3 
      4.447        50.7         -27 
      4.447        50.7         -24 
      4.447        50.7         -21 
      4.447        50.7         -18 
      4.447        50.7         -15 
      4.447        50.7         -12 
      4.447        50.7          -9 
      4.447        50.7          -6 
      4.447        50.7          -3 
      1.482        50.7         -27 
      1.482        50.7         -24 
      1.482        50.7         -21 
      1.482        50.7         -18 
      1.482        50.7         -15 
      1.482        50.7         -12 
      1.482        50.7          -9 
      1.482        50.7          -6 
      1.482        50.7          -3 
     -1.482        50.7         -27 
     -1.482        50.7         -24 
     -1.482        50.7         -21 
     -1.482        50.7         -18 
     -1.482        50.7         -15 
     -1.482        50.7         -12 
     -1.482        50.7          -9 
     -1.482        50.7          -6 
     -1.482        50.7          -3 
     -4.447        50.7         -27 
     -4.447        50.7         -24 
     -4.447        50.7         -21 
     -4.447        50.7         -18 
     -4.447        50.7         -15 
     -4.447        50.7         -12 
     -4.447        50.7          -9 
     -4.447        50.7          -6 
     -4.447        50.7          -3 
     -7.412        50.7         -27 
     -7.412        50.7         -24 
     -7.412        50.7         -21 
     -7.412        50.7         -18 
     -7.412        50.7         -15 
     -7.412        50.7         -12 
     -7.412        50.7          -9 
     -7.412        50.7          -6 
     -7.412        50.7          -3 
     -10.38        50.7         -27 
     -10.38        50.7         -24 
     -10.38        50.7         -21 
     -10.38        50.7         -18 
     -10.38        50.7         -15 
     -10.38        50.7         -12 
     -10.38        50.7          -9 
     -10.38        50.7          -6 
     -10.38        50.7          -3 
     -13.34        50.7         -27 
     -13.34        50.7         -24 
     -13.34        50.7         -21 
     -13.34        50.7         -18 
     -13.34        50.7         -15 
     -13.34        50.7         -12 
     -13.34        50.7          -9 
     -13.34        50.7          -6 
     -13.34        50.7          -3 
     -16.31        50.7         -27 
     -16.31        50.7         -24 
     -16.31        50.7         -21 
     -16.31        50.7         -18 
     -16.31        50.7         -15 
     -16.31        50.7         -12 
     -16.31        50.7          -9 
     -16.31        50.7          -6 
     -16.31        50.7          -3 
     -19.27        50.7         -27 
     -19.27        50.7         -24 
     -19.27        50.7         -21 
     -19.27        50.7         -18 
     -19.27        50.7         -15 
     -19.27        50.7         -12 
     -19.27        50.7          -9 
     -19.27        50.7          -6 
     -19.27        50.7          -3 
     -22.24        50.7         -27 
     -22.24        50.7         -24 
     -22.24        50.7         -21 
     -22.24        50.7         -18 
     -22.24        50.7         -15 
     -22.24        50.7         -12 
     -22.24        50.7          -9 
     -22.24        50.7          -6 
     -22.24        50.7          -3 
      -25.2        50.7         -27 
      -25.2        50.7         -24 
      -25.2        50.7         -21 
      -25.2        50.7         -18 
      -25.2        50.7         -15 
      -25.2        50.7         -12 
      -25.2        50.7          -9 
      -25.2        50.7          -6 
      -25.2        50.7          -3 
     -28.17        50.7         -27 
     -28.17        50.7         -24 
     -28.17        50.7         -21 
     -28.17        50.7         -18 
     -28.17        50.7         -15 
     -28.17        50.7         -12 
     -28.17        50.7          -9 
     -28.17        50.7          -6 
     -28.17        50.7          -3 
     -31.13        50.7         -27 
     -31.13        50.7         -24 
     -31.13        50.7         -21 
     -31.13        50.7         -18 
     -31.13        50.7         -15 
     -31.13        50.7         -12 
     -31.13        50.7          -9 
     -31.13        50.7          -6 
     -31.13        50.7          -3 
      -34.1        50.7         -27 
      -34.1        50.7         -24 
      -34.1        50.7         -21 
      -34.1        50.7         -18 
      -34.1        50.7         -15 
      -34.1        50.7         -12 
      -34.1        50.7          -9 
      -34.1        50.7          -6 
      -34.1        50.7          -3 
     -37.06        50.7         -27 
     -37.06        50.7         -24 
     -37.06        50.7         -21 
     -37.06        50.7         -18 
     -37.06        50.7         -15 
     -37.06        50.7         -12 
     -37.06        50.7          -9 
     -37.06        50.7          -6 
     -37.06        50.7          -3 
     -40.03        50.7         -27 
     -40.03        50.7         -24 
     -40.03        50.7         -21 
     -40.03        50.7         -18 
     -40.03        50.7         -15 
     -40.03        50.7         -12 
     -40.03        50.7          -9 
     -40.03        50.7          -6 
     -40.03        50.7          -3 
     -42.99        50.7         -27 
     -42.99        50.7         -24 
     -42.99        50.7         -21 
     -42.99        50.7         -18 
     -42.99        50.7         -15 
     -42.99        50.7         -12 
     -42.99        50.7          -9 
     -42.99        50.7          -6 
     -42.99        50.7          -3 
     -45.96        50.7         -27 
     -45.96        50.7         -24 
     -45.96        50.7         -21 
     -45.96        50.7         -18 
     -45.96        50.7         -15 
     -45.96        50.7         -12 
     -45.96        50.7          -9 
     -45.96        50.7          -6 
     -45.96        50.7          -3 
     -48.92        50.7         -27 
     -48.92        50.7         -24 
     -48.92        50.7         -21 
     -48.92        50.7         -18 
     -48.92        50.7         -15 
     -48.92        50.7         -12 
     -48.92        50.7          -9 
     -48.92        50.7          -6 
     -48.92        50.7          -3 
     -51.89        50.7         -27 
     -51.89        50.7         -24 
     -51.89        50.7         -21 
     -51.89        50.7         -18 
     -51.89        50.7         -15 
     -51.89        50.7         -12 
     -51.89        50.7          -9 
     -51.89        50.7          -6 
     -51.89        50.7          -3 
     -54.85           0         -30 
     -54.85       47.72         -30 
     -54.85       44.74         -30 
     -54.85       41.75         -30 
     -54.85       38.77         -30 
     -54.85       35.79         -30 
     -54.85       32.81         -30 
     -54.85       29.82         -30 
     -54.85       26.84         -30 
     -54.85       23.86         -30 
     -54.85       20.88         -30 
     -54.85       17.89         -30 
     -54.85       14.91         -30 
     -54.85       11.93         -30 
     -54.85       8.947         -30 
     -54.85       5.965         -30 
     -54.85       2.982         -30 
     -54.85           0           0 
     -54.85           0         -27 
     -54.85           0         -24 
     -54.85           0         -21 
     -54.85           0         -18 
     -54.85           0         -15 
     -54.85           0         -12 
     -54.85           0          -9 
     -54.85           0          -6 
     -54.85           0          -3 
     -54.85       47.72           0 
     -54.85       44.74           0 
     -54.85       41.75           0 
     -54.85       38.77           0 
     -54.85       35.79           0 
     -54.85       32.81           0 
     -54.85       29.82           0 
     -54.85       26.84           0 
     -54.85       23.86           0 
     -54.85       20.88           0 
     -54.85       17.89           0 
     -54.85       14.91           0 
     -54.85       11.93           0 
     -54.85       8.947           0 
     -54.85       5.965           0 
     -54.85       2.982           0 
     -54.85       47.72         -27 
     -54.85       47.72         -24 
     -54.85       47.72         -21 
     -54.85       47.72         -18 
     -54.85       47.72         -15 
     -54.85       47.72         -12 
     -54.85       47.72          -9 
     -54.85       47.72          -6 
     -54.85       47.72          -3 
     -54.85       44.74         -27 
     -54.85       44.74         -24 
     -54.85       44.74         -21 
     -54.85       44.74         -18 
     -54.85       44.74         -15 
     -54.85       44.74         -12 
     -54.85       44.74          -9 
     -54.85       44.74          -6 
     -54.85       44.74          -3 
     -54.85       41.75         -27 
     -54.85       41.75         -24 
     -54.85       41.75         -21 
     -54.85       41.75         -18 
     -54.85       41.75         -15 
     -54.85       41.75         -12 
     -54.85       41.75          -9 
     -54.85       41.75          -6 
     -54.85       41.75          -3 
     -54.85       38.77         -27 
     -54.85       38.77         -24 
     -54.85       38.77         -21 
     -54.85       38.77         -18 
     -54.85       38.77         -15 
     -54.85       38.77         -12 
     -54.85       38.77          -9 
     -54.85       38.77          -6 
     -54.85       38.77          -3 
     -54.85       35.79         -27 
     -54.85       35.79         -24 
     -54.85       35.79         -21 
     -54.85       35.79         -18 
     -54.85       35.79         -15 
     -54.85       35.79         -12 
     -54.85       35.79          -9 
     -54.85       35.79          -6 
     -54.85       35.79          -3 
     -54.85       32.81         -27 
     -54.85       32.81         -24 
     -54.85       32.81         -21 
     -54.85       32.81         -18 
     -54.85       32.81         -15 
     -54.85       32.81         -12 
     -54.85       32.81          -9 
     -54.85       32.81          -6 
     -54.85       32.81          -3 
     -54.85       29.82         -27 
     -54.85       29.82         -24 
     -54.85       29.82         -21 
     -54.85       29.82         -18 
     -54.85       29.82         -15 
     -54.85       29.82         -12 
     -54.85       29.82          -9 
     -54.85       29.82          -6 
     -54.85       29.82          -3 
     -54.85       26.84         -27 
     -54.85       26.84         -24 
     -54.85       26.84         -21 
     -54.85       26.84         -18 
     -54.85       26.84         -15 
     -54.85       26.84         -12 
     -54.85       26.84          -9 
     -54.85       26.84          -6 
     -54.85       26.84          -3 
     -54.85       23.86         -27 
     -54.85       23.86         -24 
     -54.85       23.86         -21 
     -54.85       23.86         -18 
     -54.85       23.86         -15 
     -54.85       23.86         -12 
     -54.85       23.86          -9 
     -54.85       23.86          -6 
     -54.85       23.86          -3 
     -54.85       20.88         -27 
     -54.85       20.88         -24 
     -54.85       20.88         -21 
     -54.85       20.88         -18 
     -54.85       20.88         -15 
     -54.85       20.88         -12 
     -54.85       20.88          -9 
     -54.85       20.88          -6 
     -54.85       20.88          -3 
     -54.85       17.89         -27 
     -54.85       17.89         -24 
     -54.85       17.89         -21 
     -54.85       17.89         -18 
     -54.85       17.89         -15 
     -54.85       17.89         -12 
     -54.85       17.89          -9 
     -54.85       17.89          -6 
     -54.85       17.89          -3 
     -54.85       14.91         -27 
     -54.85       14.91         -24 
     -54.85       14.91         -21 
     -54.85       14.91         -18 
     -54.85       14.91         -15 
     -54.85       14.91         -12 
     -54.85       14.91          -9 
     -54.85       14.91          -6 
     -54.85       14.91          -3 
     -54.85       11.93         -27 
     -54.85       11.93         -24 
     -54.85       11.93         -21 
     -54.85       11.93         -18 
     -54.85       11.93         -15 
     -54.85       11.93         -12 
     -54.85       11.93          -9 
     -54.85       11.93          -6 
     -54.85       11.93          -3 
     -54.85       8.947         -27 
     -54.85       8.947         -24 
     -54.85       8.947         -21 
     -54.85       8.947         -18 
     -54.85       8.947         -15 
     -54.85       8.947         -12 
     -54.85       8.947          -9 
     -54.85       8.947          -6 
     -54.85       8.947          -3 
     -54.85       5.965         -27 
     -54.85       5.965         -24 
     -54.85       5.965         -21 
     -54.85       5.965         -18 
     -54.85       5.965         -15 
     -54.85       5.965         -12 
     -54.85       5.965          -9 
     -54.85       5.965          -6 
     -54.85       5.965          -3 
     -54.85       2.982         -27 
     -54.85       2.982         -24 
     -54.85       2.982         -21 
     -54.85       2.982         -18 
     -54.85       2.982         -15 
     -54.85       2.982         -12 
     -54.85       2.982          -9 
     -54.85       2.982          -6 
     -54.85       2.982          -3 
      54.85           0         -30 
      54.85       47.72         -30 
      54.85       44.74         -30 
      54.85       41.75         -30 
      54.85       38.77         -30 
      54.85       35.79         -30 
      54.85       32.81         -30 
      54.85       29.82         -30 
      54.85       26.84         -30 
      54.85       23.86         -30 
      54.85       20.88         -30 
      54.85       17.89         -30 
      54.85       14.91         -30 
      54.85       11.93         -30 
      54.85       8.947         -30 
      54.85       5.965         -30 
      54.85       2.982         -30 
     -51.89           0         -30 
     -48.92           0         -30 
     -45.96           0         -30 
     -42.99           0         -30 
     -40.03           0         -30 
     -37.06           0         -30 
      -34.1           0         -30 
     -31.13           0         -30 
     -28.17           0         -30 
      -25.2           0         -30 
     -22.24           0         -30 
     -19.27           0         -30 
     -16.31           0         -30 
     -13.34           0         -30 
     -10.38           0         -30 
     -7.412           0         -30 
     -4.447           0         -30 
     -1.482           0         -30 
      1.482           0         -30 
      4.447           0         -30 
      7.412           0         -30 
      10.38           0         -30 
      13.34           0         -30 
      16.31           0         -30 
      19.27           0         -30 
      22.24           0         -30 
       25.2           0         -30 
      28.17           0         -30 
      31.13           0         -30 
       34.1           0         -30 
      37.06           0         -30 
      40.03           0         -30 
      42.99           0         -30 
      45.96           0         -30 
      48.92           0         -30 
      51.89           0         -30 
      51.89       2.982         -30 
      48.92       2.982         -30 
      45.96       2.982         -30 
      42.99       2.982         -30 
      40.03       2.982         -30 
      37.06       2.982         -30 
       34.1       2.982         -30 
      31.13       2.982         -30 
      28.17       2.982         -30 
       25.2       2.982         -30 
      22.24       2.982         -30 
      19.27       2.982         -30 
      16.31       2.982         -30 
      13.34       2.982         -30 
      10.38       2.982         -30 
      7.412       2.982         -30 
      4.447       2.982         -30 
      1.482       2.982         -30 
     -1.482       2.982         -30 
     -4.447       2.982         -30 
     -7.412       2.982         -30 
     -10.38       2.982         -30 
     -13.34       2.982         -30 
     -16.31       2.982         -30 
     -19.27       2.982         -30 
     -22.24       2.982         -30 
      -25.2       2.982         -30 
     -28.17       2.982         -30 
     -31.13       2.982         -30 
      -34.1       2.982         -30 
     -37.06       2.982         -30 
     -40.03       2.982         -30 
     -42.99       2.982         -30 
     -45.96       2.982         -30 
     -48.92       2.982         -30 
     -51.89       2.982         -30 
      51.89       5.965         -30 
      48.92       5.965         -30 
      45.96       5.965         -30 
      42.99       5.965         -30 
      40.03       5.965         -30 
      37.06       5.965         -30 
       34.1       5.965         -30 
      31.13       5.965         -30 
      28.17       5.965         -30 
       25.2       5.965         -30 
      22.24       5.965         -30 
      19.27       5.965         -30 
      16.31       5.965         -30 
      13.34       5.965         -30 
      10.38       5.965         -30 
      7.412       5.965         -30 
      4.447       5.965         -30 
      1.482       5.965         -30 
     -1.482       5.965         -30 
     -4.447       5.965         -30 
     -7.412       5.965         -30 
     -10.38       5.965         -30 
     -13.34       5.965         -30 
     -16.31       5.965         -30 
     -19.27       5.965         -30 
     -22.24       5.965         -30 
      -25.2       5.965         -30 
     -28.17       5.965         -30 
     -31.13       5.965         -30 
      -34.1       5.965         -30 
     -37.06       5.965         -30 
     -40.03       5.965         -30 
     -42.99       5.965         -30 
     -45.96       5.965         -30 
     -48.92       5.965         -30 
     -51.89       5.965         -30 
      51.89       8.947         -30 
      48.92       8.947         -30 
      45.96       8.947         -30 
      42.99       8.947         -30 
      40.03       8.947         -30 
      37.06       8.947         -30 
       34.1       8.947         -30 
      31.13       8.947         -30 
      28.17       8.947         -30 
       25.2       8.947         -30 
      22.24       8.947         -30 
      19.27       8.947         -30 
      16.31       8.947         -30 
      13.34       8.947         -30 
      10.38       8.947         -30 
      7.412       8.947         -30 
      4.447       8.947         -30 
      1.482       8.947         -30 
     -1.482       8.947         -30 
     -4.447       8.947         -30 
     -7.412       8.947         -30 
     -10.38       8.947         -30 
     -13.34       8.947         -30 
     -16.31       8.947         -30 
     -19.27       8.947         -30 
     -22.24       8.947         -30 
      -25.2       8.947         -30 
     -28.17       8.947         -30 
     -31.13       8.947         -30 
      -34.1       8.947         -30 
     -37.06       8.947         -30 
     -40.03       8.947         -30 
     -42.99       8.947         -30 
     -45.96       8.947         -30 
     -48.92       8.947         -30 
     -51.89       8.947         -30 
      51.89       11.93         -30 
      48.92       11.93         -30 
      45.96       11.93         -30 
      42.99       11.93         -30 
      40.03       11.93         -30 
      37.06       11.93         -30 
       34.1       11.93         -30 
      31.13       11.93         -30 
      28.17       11.93         -30 
       25.2       11.93         -30 
      22.24       11.93         -30 
      19.27       11.93         -30 
      16.31       11.93         -30 
      13.34       11.93         -30 
      10.38       11.93         -30 
      7.412       11.93         -30 
      4.447       11.93         -30 
      1.482       11.93         -30 
     -1.482       11.93         -30 
     -4.447       11.93         -30 
     -7.412       11.93         -30 
     -10.38       11.93         -30 
     -13.34       11.93         -30 
     -16.31       11.93         -30 
     -19.27       11.93         -30 
     -22.24       11.93         -30 
      -25.2       11.93         -30 
     -28.17       11.93         -30 
     -31.13       11.93         -30 
      -34.1       11.93         -30 
     -37.06       11.93         -30 
     -40.03       11.93         -30 
     -42.99       11.93         -30 
     -45.96       11.93         -30 
     -48.92       11.93         -30 
     -51.89       11.93         -30 
      51.89       14.91         -30 
      48.92       14.91         -30 
      45.96       14.91         -30 
      42.99       14.91         -30 
      40.03       14.91         -30 