TITLE = "NODEELEMENT"
VARIABLES = "X", "Y", "Z"
ZONE N=    2091, E=    1962, F=FEPOINT, ET=QUADRILATERAL
 2.913e+002  0.000e+000  2.500e-001
 2.921e+002  0.000e+000  5.113e-001
 2.929e+002  0.000e+000  8.535e-001
 2.937e+002  0.000e+000  1.341e+000
 2.943e+002  0.000e+000  1.981e+000
 2.947e+002  0.000e+000  2.756e+000
 2.950e+002  0.000e+000  3.608e+000
 2.950e+002  0.000e+000  4.483e+000
 2.950e+002  0.000e+000  5.364e+000
 2.950e+002  0.000e+000  6.242e+000
 2.950e+002  0.000e+000  7.120e+000
 2.949e+002  0.000e+000  9.773e+000
 2.950e+002  0.000e+000  1.243e+001
 2.950e+002  0.000e+000  1.508e+001
 2.950e+002  0.000e+000  1.773e+001
 2.950e+002  0.000e+000  2.038e+001
 2.950e+002  0.000e+000  2.304e+001
 2.950e+002  0.000e+000  2.569e+001
 2.950e+002  0.000e+000  2.834e+001
 2.950e+002  0.000e+000  3.100e+001
 2.884e+002  0.000e+000  5.728e-002
 2.899e+002  1.447e+000  3.659e-001
 2.910e+002  2.082e+000  8.769e-001
 2.918e+002  2.312e+000  1.520e+000
 2.925e+002  2.393e+000  2.217e+000
 2.930e+002  2.452e+000  2.969e+000
 2.933e+002  2.523e+000  3.768e+000
 2.934e+002  2.611e+000  4.591e+000
 2.935e+002  2.697e+000  5.426e+000
 2.936e+002  2.765e+000  6.266e+000
 2.937e+002  2.811e+000  7.120e+000
 2.938e+002  2.908e+000  9.577e+000
 2.939e+002  2.979e+000  1.208e+001
 2.940e+002  3.021e+000  1.460e+001
 2.940e+002  3.041e+000  1.712e+001
 2.940e+002  3.029e+000  1.964e+001
 2.940e+002  2.993e+000  2.218e+001
 2.941e+002  3.003e+000  2.474e+001
 2.944e+002  3.086e+000  2.726e+001
 2.945e+002  3.139e+000  2.982e+001
 2.856e+002  0.000e+000 -3.730e-002
 2.868e+002  1.299e+000 -4.354e-002
 2.882e+002  2.651e+000  2.792e-001
 2.894e+002  3.608e+000  9.821e-001
 2.903e+002  4.177e+000  1.854e+000
 2.909e+002  4.525e+000  2.750e+000
 2.914e+002  4.786e+000  3.628e+000
 2.917e+002  5.021e+000  4.496e+000
 2.919e+002  5.225e+000  5.364e+000
 2.921e+002  5.381e+000  6.235e+000
 2.922e+002  5.488e+000  7.120e+000
 2.925e+002  5.678e+000  9.409e+000
 2.927e+002  5.814e+000  1.178e+001
 2.928e+002  5.895e+000  1.418e+001
 2.928e+002  5.932e+000  1.658e+001
 2.928e+002  5.912e+000  1.898e+001
 2.929e+002  5.854e+000  2.141e+001
 2.931e+002  5.882e+000  2.387e+001
 2.935e+002  6.042e+000  2.627e+001
 2.938e+002  6.158e+000  2.873e+001
 2.827e+002  0.000e+000 -2.994e-002
 2.839e+002  1.454e+000 -1.282e-001
 2.853e+002  2.987e+000 -8.591e-002
 2.865e+002  4.287e+000  2.773e-001
 2.877e+002  5.300e+000  1.008e+000
 2.885e+002  6.047e+000  1.979e+000
 2.891e+002  6.609e+000  3.013e+000
 2.895e+002  7.064e+000  4.047e+000
 2.899e+002  7.433e+000  5.075e+000
 2.902e+002  7.708e+000  6.097e+000
 2.904e+002  7.899e+000  7.120e+000
 2.908e+002  8.173e+000  9.297e+000
 2.910e+002  8.363e+000  1.156e+001
 2.911e+002  8.472e+000  1.387e+001
 2.911e+002  8.525e+000  1.617e+001
 2.911e+002  8.500e+000  1.848e+001
 2.912e+002  8.451e+000  2.081e+001
 2.915e+002  8.515e+000  2.317e+001
 2.922e+002  8.736e+000  2.545e+001
 2.927e+002  8.938e+000  2.779e+001
 2.798e+002  0.000e+000  4.159e-003
 2.811e+002  1.827e+000 -3.000e-002
 2.824e+002  3.487e+000 -8.119e-002
 2.837e+002  4.985e+000  2.225e-002
 2.849e+002  6.274e+000  4.671e-001
 2.859e+002  7.325e+000  1.273e+000
 2.866e+002  8.164e+000  2.307e+000
 2.872e+002  8.840e+000  3.454e+000
 2.876e+002  9.377e+000  4.656e+000
 2.879e+002  9.769e+000  5.884e+000
 2.882e+002  1.004e+001  7.120e+000
 2.886e+002  1.035e+001  9.242e+000
 2.888e+002  1.056e+001  1.145e+001
 2.889e+002  1.068e+001  1.368e+001
 2.888e+002  1.075e+001  1.592e+001
 2.889e+002  1.072e+001  1.815e+001
 2.890e+002  1.070e+001  2.042e+001
 2.894e+002  1.080e+001  2.268e+001
 2.902e+002  1.105e+001  2.489e+001
 2.910e+002  1.136e+001  2.709e+001
 2.770e+002  0.000e+000  1.235e-002
 2.783e+002  2.107e+000  3.531e-002
 2.796e+002  3.962e+000  1.627e-002
 2.809e+002  5.655e+000  1.940e-002
 2.821e+002  7.177e+000  2.496e-001
 2.832e+002  8.498e+000  8.562e-001
 2.841e+002  9.599e+000  1.800e+000
 2.847e+002  1.050e+001  2.972e+000
 2.852e+002  1.120e+001  4.284e+000
 2.856e+002  1.171e+001  5.680e+000
 2.859e+002  1.204e+001  7.120e+000
 2.863e+002  1.234e+001  9.194e+000
 2.864e+002  1.255e+001  1.134e+001
 2.864e+002  1.267e+001  1.351e+001
 2.863e+002  1.275e+001  1.567e+001
 2.863e+002  1.273e+001  1.783e+001
 2.866e+002  1.270e+001  2.003e+001
 2.870e+002  1.279e+001  2.225e+001
 2.877e+002  1.298e+001  2.446e+001
 2.885e+002  1.336e+001  2.660e+001
 2.741e+002  0.000e+000  3.942e-003
 2.754e+002  2.243e+000  2.541e-002
 2.767e+002  4.304e+000  3.494e-002
 2.780e+002  6.210e+000  3.465e-002
 2.793e+002  7.960e+000  1.591e-001
 2.804e+002  9.534e+000  6.061e-001
 2.814e+002  1.089e+001  1.436e+000
 2.821e+002  1.202e+001  2.591e+000
 2.827e+002  1.291e+001  3.974e+000
 2.831e+002  1.354e+001  5.503e+000
 2.835e+002  1.393e+001  7.120e+000
 2.838e+002  1.421e+001  9.138e+000
 2.839e+002  1.441e+001  1.122e+001
 2.839e+002  1.452e+001  1.330e+001
 2.838e+002  1.461e+001  1.538e+001
 2.838e+002  1.460e+001  1.747e+001
 2.840e+002  1.454e+001  1.959e+001
 2.844e+002  1.455e+001  2.174e+001
 2.850e+002  1.467e+001  2.392e+001
 2.859e+002  1.506e+001  2.605e+001
 2.712e+002  0.000e+000 -3.023e-003
 2.725e+002  2.328e+000 -3.263e-003
 2.738e+002  4.560e+000  8.637e-003
 2.751e+002  6.653e+000  1.648e-002
 2.764e+002  8.607e+000  8.101e-002
 2.776e+002  1.041e+001  4.128e-001
 2.787e+002  1.202e+001  1.140e+000
 2.795e+002  1.339e+001  2.260e+000
 2.801e+002  1.446e+001  3.695e+000
 2.806e+002  1.522e+001  5.341e+000
 2.810e+002  1.567e+001  7.120e+000
 2.813e+002  1.593e+001  9.092e+000
 2.814e+002  1.611e+001  1.111e+001
 2.813e+002  1.622e+001  1.313e+001
 2.811e+002  1.632e+001  1.514e+001
 2.811e+002  1.631e+001  1.717e+001
 2.813e+002  1.622e+001  1.921e+001
 2.817e+002  1.616e+001  2.128e+001
 2.823e+002  1.621e+001  2.338e+001
 2.831e+002  1.656e+001  2.544e+001
 2.684e+002  0.000e+000 -2.891e-003
 2.696e+002  2.431e+000 -1.083e-002
 2.709e+002  4.788e+000 -9.415e-003
 2.722e+002  7.030e+000 -3.931e-003
 2.735e+002  9.153e+000  2.171e-002
 2.748e+002  1.115e+001  2.565e-001
 2.758e+002  1.298e+001  8.803e-001
 2.767e+002  1.458e+001  1.951e+000
 2.774e+002  1.584e+001  3.426e+000
 2.780e+002  1.673e+001  5.185e+000
 2.784e+002  1.723e+001  7.120e+000
 2.787e+002  1.748e+001  9.072e+000
 2.787e+002  1.765e+001  1.106e+001
 2.785e+002  1.775e+001  1.305e+001
 2.783e+002  1.785e+001  1.504e+001
 2.783e+002  1.785e+001  1.703e+001
 2.786e+002  1.774e+001  1.902e+001
 2.789e+002  1.766e+001  2.103e+001
 2.795e+002  1.767e+001  2.303e+001
 2.803e+002  1.792e+001  2.500e+001
 2.655e+002  0.000e+000  3.990e-006
 2.667e+002  2.543e+000 -3.897e-003
 2.680e+002  5.005e+000 -7.482e-003
 2.693e+002  7.371e+000 -7.709e-003
 2.706e+002  9.634e+000 -5.266e-003
 2.719e+002  1.179e+001  1.436e-001
 2.730e+002  1.382e+001  6.629e-001
 2.739e+002  1.562e+001  1.670e+000
 2.747e+002  1.707e+001  3.170e+000
 2.753e+002  1.808e+001  5.036e+000
 2.757e+002  1.861e+001  7.120e+000
 2.759e+002  1.885e+001  9.077e+000
 2.759e+002  1.901e+001  1.106e+001
 2.757e+002  1.910e+001  1.305e+001
 2.755e+002  1.921e+001  1.504e+001
 2.755e+002  1.921e+001  1.703e+001
 2.757e+002  1.911e+001  1.901e+001
 2.761e+002  1.907e+001  2.099e+001
 2.767e+002  1.906e+001  2.295e+001
 2.774e+002  1.921e+001  2.487e+001
 2.626e+002  0.000e+000  1.892e-003
 2.638e+002  2.642e+000  3.890e-003
 2.651e+002  5.199e+000  9.959e-004
 2.664e+002  7.675e+000 -2.033e-003
 2.677e+002  1.006e+001 -7.018e-003
 2.690e+002  1.236e+001  7.282e-002
 2.701e+002  1.455e+001  4.915e-001
 2.711e+002  1.653e+001  1.425e+000
 2.719e+002  1.816e+001  2.933e+000
 2.725e+002  1.927e+001  4.898e+000
 2.729e+002  1.983e+001  7.120e+000
 2.731e+002  2.005e+001  9.091e+000
 2.730e+002  2.019e+001  1.108e+001
 2.728e+002  2.028e+001  1.307e+001
 2.725e+002  2.039e+001  1.507e+001
 2.725e+002  2.039e+001  1.706e+001
 2.727e+002  2.032e+001  1.905e+001
 2.731e+002  2.031e+001  2.104e+001
 2.737e+002  2.032e+001  2.301e+001
 2.744e+002  2.037e+001  2.495e+001
 2.598e+002  0.000e+000  2.387e-003
 2.610e+002  2.722e+000  7.022e-003
 2.622e+002  5.365e+000  5.860e-003
 2.635e+002  7.938e+000  3.339e-003
 2.648e+002  1.044e+001 -3.212e-004
 2.660e+002  1.286e+001  3.192e-002
 2.672e+002  1.518e+001  3.586e-001
 2.682e+002  1.734e+001  1.213e+000
 2.690e+002  1.912e+001  2.719e+000
 2.696e+002  2.033e+001  4.773e+000
 2.700e+002  2.089e+001  7.120e+000
 2.702e+002  2.107e+001  9.099e+000
 2.701e+002  2.121e+001  1.109e+001
 2.698e+002  2.129e+001  1.308e+001
 2.695e+002  2.140e+001  1.508e+001
 2.695e+002  2.140e+001  1.707e+001
 2.697e+002  2.134e+001  1.906e+001
 2.701e+002  2.133e+001  2.105e+001
 2.707e+002  2.135e+001  2.304e+001
 2.714e+002  2.136e+001  2.502e+001
 2.569e+002  0.000e+000  1.948e-003
 2.581e+002  2.786e+000  6.706e-003
 2.593e+002  5.504e+000  6.817e-003
 2.606e+002  8.163e+000  5.286e-003
 2.619e+002  1.076e+001  3.522e-003
 2.631e+002  1.328e+001  8.774e-003
 2.642e+002  1.574e+001  2.533e-001
 2.653e+002  1.804e+001  1.026e+000
 2.661e+002  1.997e+001  2.523e+000
 2.667e+002  2.125e+001  4.660e+000
 2.671e+002  2.181e+001  7.120e+000
 2.673e+002  2.194e+001  9.103e+000
 2.671e+002  2.207e+001  1.109e+001
 2.668e+002  2.215e+001  1.308e+001
 2.664e+002  2.224e+001  1.507e+001
 2.664e+002  2.225e+001  1.706e+001
 2.667e+002  2.219e+001  1.905e+001
 2.671e+002  2.217e+001  2.104e+001
 2.677e+002  2.216e+001  2.303e+001
 2.683e+002  2.216e+001  2.502e+001
 2.540e+002  0.000e+000  1.031e-003
 2.552e+002  2.837e+000  4.349e-003
 2.564e+002  5.620e+000  5.227e-003
 2.577e+002  8.353e+000  4.804e-003
 2.590e+002  1.103e+001  4.296e-003
 2.602e+002  1.365e+001 -2.594e-003
 2.613e+002  1.621e+001  1.689e-001
 2.623e+002  1.865e+001  8.557e-001
 2.632e+002  2.071e+001  2.340e+000
 2.638e+002  2.204e+001  4.557e+000
 2.641e+002  2.257e+001  7.120e+000
 2.643e+002  2.266e+001  9.104e+000
 2.641e+002  2.279e+001  1.109e+001
 2.637e+002  2.286e+001  1.307e+001
 2.633e+002  2.294e+001  1.506e+001
 2.633e+002  2.295e+001  1.704e+001
 2.636e+002  2.290e+001  1.903e+001
 2.640e+002  2.285e+001  2.102e+001
 2.646e+002  2.282e+001  2.301e+001
 2.652e+002  2.281e+001  2.499e+001
 2.512e+002  0.000e+000  9.501e-005
 2.523e+002  2.879e+000  1.356e-003
 2.535e+002  5.718e+000  2.452e-003
 2.548e+002  8.514e+000  2.947e-003
 2.560e+002  1.126e+001  3.106e-003
 2.572e+002  1.396e+001 -5.546e-003
 2.583e+002  1.662e+001  1.032e-001
 2.594e+002  1.917e+001  7.010e-001
 2.602e+002  2.135e+001  2.170e+000
 2.608e+002  2.272e+001  4.465e+000
 2.611e+002  2.320e+001  7.120e+000
 2.613e+002  2.326e+001  9.105e+000
 2.610e+002  2.337e+001  1.109e+001
 2.606e+002  2.343e+001  1.307e+001
 2.602e+002  2.350e+001  1.506e+001
 2.601e+002  2.351e+001  1.704e+001
 2.605e+002  2.346e+001  1.902e+001
 2.609e+002  2.341e+001  2.101e+001
 2.614e+002  2.337e+001  2.299e+001
 2.621e+002  2.335e+001  2.498e+001
 2.483e+002  0.000e+000 -4.687e-004
 2.494e+002  2.915e+000 -8.954e-004
 2.506e+002  5.801e+000 -1.462e-004
 2.519e+002  8.650e+000  7.718e-004
 2.531e+002  1.146e+001  1.057e-003
 2.543e+002  1.423e+001 -3.429e-003
 2.554e+002  1.696e+001  5.432e-002
 2.564e+002  1.961e+001  5.624e-001
 2.572e+002  2.189e+001  2.012e+000
 2.578e+002  2.328e+001  4.382e+000
 2.581e+002  2.370e+001  7.120e+000
 2.582e+002  2.375e+001  9.105e+000
 2.580e+002  2.383e+001  1.109e+001
 2.575e+002  2.388e+001  1.307e+001
 2.571e+002  2.394e+001  1.506e+001
 2.570e+002  2.395e+001  1.704e+001
 2.573e+002  2.391e+001  1.903e+001
 2.577e+002  2.386e+001  2.101e+001
 2.583e+002  2.382e+001  2.299e+001
 2.589e+002  2.379e+001  2.498e+001
 2.454e+002  0.000e+000 -6.447e-004
 2.465e+002  2.947e+000 -1.856e-003
 2.477e+002  5.873e+000 -1.548e-003
 2.489e+002  8.767e+000 -7.230e-004
 2.501e+002  1.163e+001 -7.470e-004
 2.513e+002  1.446e+001  4.072e-004
 2.524e+002  1.725e+001  2.032e-002
 2.534e+002  1.999e+001  4.404e-001
 2.543e+002  2.236e+001  1.865e+000
 2.548e+002  2.374e+001  4.310e+000
 2.551e+002  2.409e+001  7.120e+000
 2.552e+002  2.413e+001  9.106e+000
 2.549e+002  2.419e+001  1.109e+001
 2.544e+002  2.423e+001  1.308e+001
 2.539e+002  2.428e+001  1.506e+001
 2.538e+002  2.428e+001  1.705e+001
 2.541e+002  2.425e+001  1.903e+001
 2.546e+002  2.422e+001  2.102e+001
 2.551e+002  2.418e+001  2.300e+001
 2.558e+002  2.414e+001  2.498e+001
 2.426e+002  0.000e+000 -5.544e-004
 2.437e+002  2.977e+000 -1.854e-003
 2.448e+002  5.935e+000 -1.876e-003
 2.460e+002  8.867e+000 -1.287e-003
 2.472e+002  1.177e+001 -1.615e-003
 2.484e+002  1.465e+001  2.982e-003
 2.494e+002  1.750e+001 -7.005e-004
 2.504e+002  2.031e+001  3.351e-001
 2.513e+002  2.275e+001  1.730e+000
 2.518e+002  2.410e+001  4.248e+000
 2.521e+002  2.439e+001  7.120e+000
 2.521e+002  2.442e+001  9.106e+000
 2.518e+002  2.446e+001  1.109e+001
 2.513e+002  2.449e+001  1.308e+001
 2.507e+002  2.453e+001  1.506e+001
 2.506e+002  2.453e+001  1.705e+001
 2.510e+002  2.451e+001  1.904e+001
 2.514e+002  2.448e+001  2.102e+001
 2.520e+002  2.445e+001  2.301e+001
 2.526e+002  2.442e+001  2.499e+001
 2.397e+002  0.000e+000 -3.193e-004
 2.408e+002  3.002e+000 -1.266e-003
 2.419e+002  5.989e+000 -1.493e-003
 2.431e+002  8.953e+000 -1.189e-003
 2.443e+002  1.190e+001 -1.717e-003
 2.454e+002  1.481e+001  3.797e-003
 2.465e+002  1.771e+001 -1.101e-002
 2.474e+002  2.058e+001  2.465e-001
 2.482e+002  2.310e+001  1.607e+000
 2.488e+002  2.439e+001  4.197e+000
 2.490e+002  2.461e+001  7.120e+000
 2.491e+002  2.463e+001  9.106e+000
 2.487e+002  2.465e+001  1.109e+001
 2.481e+002  2.467e+001  1.308e+001
 2.475e+002  2.471e+001  1.507e+001
 2.474e+002  2.471e+001  1.705e+001
 2.478e+002  2.469e+001  1.904e+001
 2.482e+002  2.468e+001  2.103e+001
 2.488e+002  2.465e+001  2.301e+001
 2.494e+002  2.462e+001  2.500e+001
 2.368e+002  0.000e+000 -6.086e-005
 2.379e+002  3.025e+000 -4.631e-004
 2.390e+002  6.035e+000 -7.612e-004
 2.402e+002  9.027e+000 -7.102e-004
 2.413e+002  1.200e+001 -1.331e-003
 2.424e+002  1.495e+001  3.386e-003
 2.435e+002  1.789e+001 -1.329e-002
 2.444e+002  2.081e+001  1.726e-001
 2.452e+002  2.339e+001  1.495e+000
 2.457e+002  2.461e+001  4.155e+000
 2.460e+002  2.476e+001  7.120e+000
 2.460e+002  2.478e+001  9.106e+000
 2.456e+002  2.479e+001  1.109e+001
 2.450e+002  2.480e+001  1.308e+001
 2.444e+002  2.483e+001  1.507e+001
 2.442e+002  2.483e+001  1.705e+001
 2.446e+002  2.482e+001  1.904e+001
 2.451e+002  2.481e+001  2.103e+001
 2.456e+002  2.479e+001  2.301e+001
 2.462e+002  2.477e+001  2.500e+001
 2.339e+002  0.000e+000  1.087e-004
 2.350e+002  3.044e+000  1.828e-004
 2.361e+002  6.075e+000 -4.330e-005
 2.373e+002  9.090e+000 -1.301e-004
 2.384e+002  1.209e+001 -7.374e-004
 2.395e+002  1.507e+001  2.283e-003
 2.405e+002  1.804e+001 -1.023e-002
 2.414e+002  2.100e+001  1.115e-001
 2.422e+002  2.363e+001  1.395e+000
 2.427e+002  2.477e+001  4.121e+000
 2.429e+002  2.486e+001  7.120e+000
 2.429e+002  2.487e+001  9.106e+000
 2.425e+002  2.488e+001  1.109e+001
 2.419e+002  2.489e+001  1.308e+001
 2.412e+002  2.491e+001  1.507e+001
 2.411e+002  2.491e+001  1.705e+001
 2.414e+002  2.490e+001  1.904e+001
 2.419e+002  2.489e+001  2.103e+001
 2.425e+002  2.488e+001  2.301e+001
 2.430e+002  2.487e+001  2.500e+001
 2.311e+002  0.000e+000  1.695e-004
 2.321e+002  3.061e+000  4.794e-004
 2.332e+002  6.109e+000  3.660e-004
 2.343e+002  9.144e+000  2.817e-004
 2.354e+002  1.217e+001 -2.131e-004
 2.365e+002  1.517e+001  1.024e-003
 2.375e+002  1.817e+001 -4.522e-003
 2.384e+002  2.117e+001  6.098e-002
 2.392e+002  2.384e+001  1.307e+000
 2.397e+002  2.488e+001  4.094e+000
 2.399e+002  2.493e+001  7.120e+000
 2.399e+002  2.493e+001  9.106e+000
 2.394e+002  2.494e+001  1.109e+001
 2.387e+002  2.494e+001  1.308e+001
 2.380e+002  2.495e+001  1.507e+001
 2.379e+002  2.495e+001  1.705e+001
 2.383e+002  2.495e+001  1.904e+001
 2.387e+002  2.494e+001  2.102e+001
 2.393e+002  2.494e+001  2.301e+001
 2.399e+002  2.493e+001  2.500e+001
 2.282e+002  0.000e+000  1.538e-004
 2.293e+002  3.074e+000  5.045e-004
 2.303e+002  6.137e+000  4.796e-004
 2.314e+002  9.190e+000  4.345e-004
 2.325e+002  1.223e+001  7.143e-005
 2.336e+002  1.526e+001  7.733e-005
 2.345e+002  1.828e+001  1.197e-003
 2.354e+002  2.131e+001  1.905e-002
 2.362e+002  2.401e+001  1.231e+000
 2.366e+002  2.495e+001  4.072e+000
 2.368e+002  2.496e+001  7.120e+000
 2.368e+002  2.496e+001  9.106e+000
 2.363e+002  2.497e+001  1.109e+001
 2.356e+002  2.497e+001  1.308e+001
 2.348e+002  2.498e+001  1.506e+001
 2.347e+002  2.498e+001  1.705e+001
 2.351e+002  2.498e+001  1.904e+001
 2.356e+002  2.497e+001  2.102e+001
 2.361e+002  2.497e+001  2.301e+001
 2.367e+002  2.496e+001  2.500e+001
 2.253e+002  0.000e+000  9.446e-005
 2.264e+002  3.084e+000  3.590e-004
 2.274e+002  6.161e+000  3.983e-004
 2.285e+002  9.229e+000  3.877e-004
 2.296e+002  1.229e+001  1.951e-004
 2.306e+002  1.534e+001 -5.585e-004
 2.315e+002  1.837e+001  5.626e-003
 2.324e+002  2.143e+001 -1.591e-002
 2.332e+002  2.416e+001  1.166e+000
 2.336e+002  2.499e+001  4.054e+000
 2.338e+002  2.498e+001  7.120e+000
 2.337e+002  2.498e+001  9.106e+000
 2.332e+002  2.499e+001  1.109e+001
 2.325e+002  2.499e+001  1.308e+001
 2.317e+002  2.499e+001  1.506e+001
 2.315e+002  2.499e+001  1.705e+001
 2.319e+002  2.499e+001  1.904e+001
 2.324e+002  2.499e+001  2.102e+001
 2.329e+002  2.499e+001  2.301e+001
 2.335e+002  2.499e+001  2.499e+001
 2.225e+002  0.000e+000  2.428e-005
 2.235e+002  3.092e+000  1.434e-004
 2.245e+002  6.178e+000  2.230e-004
 2.256e+002  9.259e+000  2.050e-004
 2.266e+002  1.233e+001  2.722e-004
 2.276e+002  1.540e+001 -1.078e-003
 2.286e+002  1.845e+001  8.824e-003
 2.294e+002  2.153e+001 -4.446e-002
 2.301e+002  2.428e+001  1.114e+000
 2.305e+002  2.501e+001  4.039e+000
 2.307e+002  2.500e+001  7.120e+000
 2.307e+002  2.499e+001  9.106e+000
 2.301e+002  2.500e+001  1.109e+001
 2.293e+002  2.500e+001  1.308e+001
 2.285e+002  2.500e+001  1.506e+001
 2.283e+002  2.500e+001  1.705e+001
 2.287e+002  2.500e+001  1.904e+001
 2.292e+002  2.500e+001  2.102e+001
 2.298e+002  2.500e+001  2.301e+001
 2.303e+002  2.500e+001  2.499e+001
 2.196e+002  0.000e+000 -2.530e-005
 2.206e+002  3.097e+000 -4.173e-005
 2.216e+002  6.190e+000  5.434e-005
 2.227e+002  9.280e+000 -4.954e-005
 2.237e+002  1.236e+001  4.168e-004
 2.247e+002  1.544e+001 -1.678e-003
 2.256e+002  1.851e+001  1.091e-002
 2.264e+002  2.161e+001 -6.701e-002
 2.271e+002  2.437e+001  1.073e+000
 2.275e+002  2.502e+001  4.028e+000
 2.277e+002  2.500e+001  7.120e+000
 2.276e+002  2.500e+001  9.106e+000
 2.270e+002  2.500e+001  1.109e+001
 2.262e+002  2.500e+001  1.308e+001
 2.253e+002  2.500e+001  1.506e+001
 2.251e+002  2.500e+001  1.705e+001
 2.256e+002  2.500e+001  1.904e+001
 2.261e+002  2.500e+001  2.102e+001
 2.266e+002  2.500e+001  2.301e+001
 2.271e+002  2.500e+001  2.499e+001
 2.167e+002  0.000e+000 -4.502e-005
 2.177e+002  3.099e+000 -1.351e-004
 2.187e+002  6.197e+000 -2.332e-005
 2.197e+002  9.293e+000 -3.128e-004
 2.207e+002  1.239e+001  7.426e-004
 2.217e+002  1.548e+001 -2.553e-003
 2.226e+002  1.856e+001  1.202e-002
 2.234e+002  2.166e+001 -8.397e-002
 2.241e+002  2.444e+001  1.045e+000
 2.245e+002  2.502e+001  4.020e+000
 2.246e+002  2.500e+001  7.120e+000
 2.245e+002  2.500e+001  9.106e+000
 2.239e+002  2.500e+001  1.109e+001
 2.230e+002  2.500e+001  1.308e+001
 2.221e+002  2.500e+001  1.506e+001
 2.219e+002  2.500e+001  1.705e+001
 2.224e+002  2.500e+001  1.904e+001
 2.229e+002  2.500e+001  2.102e+001
 2.234e+002  2.500e+001  2.301e+001
 2.240e+002  2.500e+001  2.499e+001
 2.139e+002  0.000e+000 -4.312e-005
 2.148e+002  3.100e+000 -1.528e-004
 2.158e+002  6.200e+000 -1.814e-005
 2.168e+002  9.299e+000 -5.332e-004
 2.178e+002  1.240e+001  1.270e-003
 2.187e+002  1.549e+001 -3.826e-003
 2.196e+002  1.858e+001  1.227e-002
 2.204e+002  2.170e+001 -9.574e-002
 2.211e+002  2.449e+001  1.028e+000
 2.214e+002  2.502e+001  4.015e+000
 2.216e+002  2.500e+001  7.120e+000
 2.215e+002  2.500e+001  9.106e+000
 2.208e+002  2.500e+001  1.109e+001
 2.199e+002  2.500e+001  1.308e+001
 2.190e+002  2.500e+001  1.506e+001
 2.187e+002  2.500e+001  1.705e+001
 2.192e+002  2.500e+001  1.904e+001
 2.197e+002  2.500e+001  2.102e+001
 2.202e+002  2.500e+001  2.301e+001
 2.208e+002  2.500e+001  2.500e+001
 2.110e+002  0.000e+000 -2.832e-005
 2.120e+002  3.101e+000 -1.202e-004
 2.129e+002  6.202e+000  2.950e-005
 2.139e+002  9.302e+000 -6.700e-004
 2.149e+002  1.240e+001  1.801e-003
 2.158e+002  1.550e+001 -5.174e-003
 2.166e+002  1.860e+001  1.202e-002
 2.174e+002  2.171e+001 -1.032e-001
 2.180e+002  2.452e+001  1.021e+000
 2.184e+002  2.502e+001  4.012e+000
 2.185e+002  2.500e+001  7.120e+000
 2.184e+002  2.500e+001  9.106e+000
 2.177e+002  2.500e+001  1.109e+001
 2.168e+002  2.500e+001  1.308e+001
 2.158e+002  2.500e+001  1.506e+001
 2.156e+002  2.500e+001  1.705e+001
 2.160e+002  2.500e+001  1.904e+001
 2.165e+002  2.500e+001  2.102e+001
 2.171e+002  2.500e+001  2.301e+001
 2.176e+002  2.500e+001  2.500e+001
 2.081e+002  0.000e+000 -9.348e-006
 2.091e+002  3.104e+000 -6.267e-005
 2.100e+002  6.205e+000  7.922e-005
 2.110e+002  9.306e+000 -6.828e-004
 2.119e+002  1.241e+001  2.109e-003
 2.128e+002  1.550e+001 -6.108e-003
 2.136e+002  1.860e+001  1.178e-002
 2.144e+002  2.172e+001 -1.080e-001
 2.150e+002  2.454e+001  1.020e+000
 2.153e+002  2.502e+001  4.010e+000
 2.155e+002  2.500e+001  7.120e+000
 2.153e+002  2.500e+001  9.106e+000
 2.146e+002  2.500e+001  1.109e+001
 2.136e+002  2.500e+001  1.308e+001
 2.126e+002  2.500e+001  1.506e+001
 2.124e+002  2.500e+001  1.705e+001
 2.129e+002  2.500e+001  1.904e+001
 2.134e+002  2.500e+001  2.102e+001
 2.139e+002  2.500e+001  2.301e+001
 2.144e+002  2.500e+001  2.500e+001
 2.053e+002  0.000e+000  5.226e-006
 2.062e+002  3.108e+000 -5.466e-006
 2.071e+002  6.213e+000  9.063e-005
 2.081e+002  9.315e+000 -5.311e-004
 2.090e+002  1.241e+001  1.968e-003
 2.099e+002  1.551e+001 -6.138e-003
 2.107e+002  1.861e+001  1.209e-002
 2.114e+002  2.173e+001 -1.119e-001
 2.120e+002  2.455e+001  1.018e+000
 2.123e+002  2.502e+001  4.009e+000
 2.124e+002  2.500e+001  7.120e+000
 2.123e+002  2.500e+001  9.106e+000
 2.115e+002  2.500e+001  1.109e+001
 2.105e+002  2.500e+001  1.308e+001
 2.094e+002  2.500e+001  1.506e+001
 2.092e+002  2.500e+001  1.705e+001
 2.097e+002  2.500e+001  1.904e+001
 2.102e+002  2.500e+001  2.102e+001
 2.107e+002  2.500e+001  2.301e+001
 2.112e+002  2.500e+001  2.500e+001
 2.024e+002  0.000e+000  1.163e-005
 2.033e+002  3.116e+000  3.262e-005
 2.042e+002  6.226e+000  2.982e-005
 2.051e+002  9.332e+000 -1.774e-004
 2.060e+002  1.243e+001  1.149e-003
 2.069e+002  1.553e+001 -4.775e-003
 2.077e+002  1.863e+001  1.347e-002
 2.084e+002  2.175e+001 -1.167e-001
 2.090e+002  2.456e+001  1.010e+000
 2.093e+002  2.502e+001  4.007e+000
 2.094e+002  2.500e+001  7.120e+000
 2.092e+002  2.500e+001  9.106e+000
 2.084e+002  2.500e+001  1.109e+001
 2.074e+002  2.500e+001  1.308e+001
 2.063e+002  2.500e+001  1.506e+001
 2.060e+002  2.500e+001  1.705e+001
 2.065e+002  2.500e+001  1.904e+001
 2.070e+002  2.500e+001  2.102e+001
 2.076e+002  2.500e+001  2.301e+001
 2.081e+002  2.500e+001  2.500e+001
 1.995e+002  0.000e+000  1.186e-005
 2.004e+002  3.125e+000  5.190e-005
 2.013e+002  6.244e+000 -8.711e-005
 2.022e+002  9.357e+000  3.409e-004
 2.031e+002  1.247e+001 -3.980e-004
 2.039e+002  1.557e+001 -1.697e-003
 2.047e+002  1.867e+001  1.638e-002
 2.054e+002  2.179e+001 -1.239e-001
 2.059e+002  2.459e+001  9.898e-001
 2.062e+002  2.502e+001  4.003e+000
 2.063e+002  2.500e+001  7.120e+000
 2.061e+002  2.500e+001  9.106e+000
 2.053e+002  2.500e+001  1.109e+001
 2.042e+002  2.500e+001  1.308e+001
 2.031e+002  2.500e+001  1.506e+001
 2.028e+002  2.500e+001  1.705e+001
 2.033e+002  2.500e+001  1.904e+001
 2.039e+002  2.500e+001  2.102e+001
 2.044e+002  2.500e+001  2.301e+001
 2.049e+002  2.500e+001  2.500e+001
 1.967e+002  0.000e+000  8.256e-006
 1.975e+002  3.134e+000  5.615e-005
 1.984e+002  6.262e+000 -2.208e-004
 1.993e+002  9.385e+000  9.043e-004
 2.002e+002  1.250e+001 -2.290e-003
 2.010e+002  1.562e+001  2.395e-003
 2.017e+002  1.872e+001  2.031e-002
 2.024e+002  2.186e+001 -1.340e-001
 2.029e+002  2.462e+001  9.562e-001
 2.032e+002  2.502e+001  3.996e+000
 2.033e+002  2.500e+001  7.120e+000
 2.031e+002  2.500e+001  9.106e+000
 2.022e+002  2.500e+001  1.109e+001
 2.011e+002  2.500e+001  1.308e+001
 1.999e+002  2.500e+001  1.506e+001
 1.996e+002  2.500e+001  1.705e+001
 2.002e+002  2.500e+001  1.904e+001
 2.007e+002  2.500e+001  2.102e+001
 2.012e+002  2.500e+001  2.301e+001
 2.017e+002  2.500e+001  2.500e+001
 1.938e+002  0.000e+000  3.172e-006
 1.947e+002  3.140e+000  4.914e-005
 1.955e+002  6.277e+000 -3.316e-004
 1.964e+002  9.410e+000  1.389e-003
 1.972e+002  1.254e+001 -4.073e-003
 1.980e+002  1.566e+001  6.423e-003
 1.987e+002  1.878e+001  2.405e-002
 1.994e+002  2.193e+001 -1.450e-001
 1.999e+002  2.466e+001  9.165e-001
 2.001e+002  2.502e+001  3.988e+000
 2.002e+002  2.500e+001  7.120e+000
 2.000e+002  2.500e+001  9.106e+000
 1.991e+002  2.500e+001  1.109e+001
 1.979e+002  2.500e+001  1.308e+001
 1.967e+002  2.500e+001  1.506e+001
 1.964e+002  2.500e+001  1.705e+001
 1.970e+002  2.500e+001  1.904e+001
 1.975e+002  2.500e+001  2.102e+001
 1.980e+002  2.500e+001  2.301e+001
 1.985e+002  2.500e+001  2.500e+001
 1.909e+002  0.000e+000 -1.067e-006
 1.918e+002  3.143e+000  3.463e-005
 1.926e+002  6.285e+000 -3.801e-004
 1.935e+002  9.425e+000  1.672e-003
 1.943e+002  1.256e+001 -5.293e-003
 1.950e+002  1.570e+001  9.309e-003
 1.957e+002  1.882e+001  2.631e-002
 1.964e+002  2.200e+001 -1.550e-001
 1.968e+002  2.469e+001  8.799e-001
 1.971e+002  2.501e+001  3.981e+000
 1.972e+002  2.500e+001  7.120e+000
 1.969e+002  2.500e+001  9.106e+000
 1.960e+002  2.500e+001  1.109e+001
 1.948e+002  2.500e+001  1.308e+001
 1.935e+002  2.500e+001  1.506e+001
 1.932e+002  2.500e+001  1.705e+001
 1.938e+002  2.500e+001  1.904e+001
 1.944e+002  2.500e+001  2.102e+001
 1.949e+002  2.500e+001  2.301e+001
 1.953e+002  2.500e+001  2.500e+001
 1.881e+002  0.000e+000 -3.153e-006
 1.889e+002  3.140e+000  1.635e-005
 1.897e+002  6.282e+000 -3.322e-004
 1.905e+002  9.426e+000  1.634e-003
 1.913e+002  1.257e+001 -5.500e-003
 1.921e+002  1.571e+001  9.976e-003
 1.928e+002  1.885e+001  2.586e-002
 1.934e+002  2.204e+001 -1.621e-001
 1.938e+002  2.471e+001  8.554e-001
 1.941e+002  2.501e+001  3.975e+000
 1.941e+002  2.500e+001  7.120e+000
 1.939e+002  2.500e+001  9.106e+000
 1.929e+002  2.500e+001  1.109e+001
 1.917e+002  2.500e+001  1.308e+001
 1.904e+002  2.500e+001  1.506e+001
 1.901e+002  2.500e+001  1.705e+001
 1.906e+002  2.500e+001  1.904e+001
 1.912e+002  2.500e+001  2.102e+001
 1.917e+002  2.500e+001  2.301e+001
 1.921e+002  2.500e+001  2.500e+001
 1.852e+002  0.000e+000 -3.497e-006
 1.860e+002  3.133e+000 -2.027e-006
 1.868e+002  6.271e+000 -2.063e-004
 1.876e+002  9.412e+000  1.267e-003
 1.884e+002  1.256e+001 -4.487e-003
 1.891e+002  1.570e+001  7.662e-003
 1.898e+002  1.884e+001  2.165e-002
 1.903e+002  2.204e+001 -1.643e-001
 1.908e+002  2.472e+001  8.518e-001
 1.910e+002  2.501e+001  3.974e+000
 1.911e+002  2.500e+001  7.120e+000
 1.908e+002  2.500e+001  9.106e+000
 1.898e+002  2.500e+001  1.109e+001
 1.885e+002  2.500e+001  1.308e+001
 1.872e+002  2.500e+001  1.506e+001
 1.869e+002  2.500e+001  1.705e+001
 1.875e+002  2.500e+001  1.904e+001
 1.880e+002  2.500e+001  2.102e+001
 1.885e+002  2.500e+001  2.301e+001
 1.890e+002  2.500e+001  2.500e+001
 1.823e+002  0.000e+000 -2.673e-006
 1.831e+002  3.124e+000 -1.690e-005
 1.839e+002  6.253e+000 -5.054e-005
 1.847e+002  9.387e+000  7.047e-004
 1.855e+002  1.253e+001 -2.670e-003
 1.862e+002  1.567e+001  3.305e-003
 1.868e+002  1.881e+001  1.511e-002
 1.873e+002  2.200e+001 -1.612e-001
 1.878e+002  2.470e+001  8.716e-001
 1.880e+002  2.501e+001  3.978e+000
 1.880e+002  2.500e+001  7.120e+000
 1.877e+002  2.500e+001  9.106e+000
 1.867e+002  2.500e+001  1.109e+001
 1.854e+002  2.500e+001  1.308e+001
 1.840e+002  2.500e+001  1.506e+001
 1.837e+002  2.500e+001  1.705e+001
 1.843e+002  2.500e+001  1.904e+001
 1.849e+002  2.500e+001  2.102e+001
 1.854e+002  2.500e+001  2.301e+001
 1.858e+002  2.500e+001  2.500e+001
 1.795e+002  0.000e+000 -1.254e-006
 1.802e+002  3.114e+000 -2.464e-005
 1.810e+002  6.234e+000  8.676e-005
 1.818e+002  9.359e+000  8.447e-005
 1.825e+002  1.249e+001 -5.582e-004
 1.832e+002  1.562e+001 -1.591e-003
 1.838e+002  1.875e+001  9.206e-003
 1.843e+002  2.193e+001 -1.539e-001
 1.847e+002  2.467e+001  9.069e-001
 1.849e+002  2.502e+001  3.984e+000
 1.850e+002  2.500e+001  7.120e+000
 1.847e+002  2.500e+001  9.106e+000
 1.836e+002  2.500e+001  1.109e+001
 1.822e+002  2.500e+001  1.308e+001
 1.808e+002  2.500e+001  1.506e+001
 1.805e+002  2.500e+001  1.705e+001
 1.811e+002  2.500e+001  1.904e+001
 1.817e+002  2.500e+001  2.102e+001
 1.822e+002  2.500e+001  2.301e+001
 1.826e+002  2.500e+001  2.500e+001
 1.766e+002  0.000e+000  1.863e-007
 1.774e+002  3.106e+000 -2.163e-005
 1.781e+002  6.216e+000  1.572e-004
 1.789e+002  9.331e+000 -4.545e-004
 1.796e+002  1.245e+001  1.337e-003
 1.802e+002  1.557e+001 -5.523e-003
 1.808e+002  1.869e+001  6.915e-003
 1.813e+002  2.185e+001 -1.434e-001
 1.817e+002  2.463e+001  9.490e-001
 1.819e+002  2.502e+001  3.993e+000
 1.819e+002  2.500e+001  7.120e+000
 1.816e+002  2.500e+001  9.106e+000
 1.805e+002  2.500e+001  1.109e+001
 1.791e+002  2.500e+001  1.308e+001
 1.777e+002  2.500e+001  1.506e+001
 1.773e+002  2.500e+001  1.705e+001
 1.779e+002  2.500e+001  1.904e+001
 1.785e+002  2.500e+001  2.102e+001
 1.790e+002  2.500e+001  2.301e+001
 1.794e+002  2.500e+001  2.500e+001
 1.737e+002  0.000e+000  1.231e-006
 1.745e+002  3.101e+000 -5.002e-006
 1.752e+002  6.204e+000  1.155e-004
 1.759e+002  9.309e+000 -7.747e-004
 1.766e+002  1.242e+001  2.507e-003
 1.773e+002  1.553e+001 -6.988e-003
 1.778e+002  1.864e+001  1.122e-002
 1.783e+002  2.178e+001 -1.311e-001
 1.787e+002  2.459e+001  9.890e-001
 1.789e+002  2.503e+001  4.001e+000