TITLE = "NODEELEMENT"
VARIABLES = "X", "Y", "Z"
ZONE N=    1273, E=    1177, F=FEPOINT, ET=QUADRILATERAL
 2.913e+002  0.000e+000  2.500e-001
 2.928e+002  0.000e+000  8.815e-001
 2.940e+002  0.000e+000  1.880e+000
 2.948e+002  0.000e+000  3.210e+000
 2.950e+002  0.000e+000  4.813e+000
 2.950e+002  0.000e+000  6.421e+000
 2.950e+002  0.000e+000  8.030e+000
 2.950e+002  0.000e+000  1.090e+001
 2.950e+002  0.000e+000  1.377e+001
 2.950e+002  0.000e+000  1.664e+001
 2.950e+002  0.000e+000  1.952e+001
 2.950e+002  0.000e+000  2.239e+001
 2.950e+002  0.000e+000  2.526e+001
 2.950e+002  0.000e+000  2.813e+001
 2.950e+002  0.000e+000  3.100e+001
 2.905e+002  0.000e+000  2.019e-001
 2.922e+002  7.339e-001  8.862e-001
 2.932e+002  8.799e-001  1.897e+000
 2.940e+002  1.034e+000  3.217e+000
 2.942e+002  1.208e+000  4.792e+000
 2.942e+002  1.337e+000  6.400e+000
 2.943e+002  1.441e+000  8.030e+000
 2.943e+002  1.465e+000  1.081e+001
 2.943e+002  1.493e+000  1.361e+001
 2.943e+002  1.497e+000  1.641e+001
 2.943e+002  1.494e+000  1.921e+001
 2.943e+002  1.505e+000  2.202e+001
 2.944e+002  1.528e+000  2.482e+001
 2.944e+002  1.576e+000  2.763e+001
 2.945e+002  1.640e+000  3.043e+001
 2.897e+002  0.000e+000  1.538e-001
 2.915e+002  1.468e+000  8.909e-001
 2.925e+002  1.760e+000  1.913e+000
 2.932e+002  2.067e+000  3.225e+000
 2.934e+002  2.415e+000  4.771e+000
 2.935e+002  2.674e+000  6.379e+000
 2.935e+002  2.882e+000  8.030e+000
 2.936e+002  2.931e+000  1.073e+001
 2.936e+002  2.986e+000  1.344e+001
 2.937e+002  2.993e+000  1.617e+001
 2.937e+002  2.988e+000  1.891e+001
 2.937e+002  3.010e+000  2.164e+001
 2.937e+002  3.056e+000  2.439e+001
 2.938e+002  3.152e+000  2.713e+001
 2.939e+002  3.281e+000  2.986e+001
 2.889e+002  0.000e+000  1.057e-001
 2.907e+002  1.832e+000  7.777e-001
 2.918e+002  2.640e+000  1.930e+000
 2.924e+002  3.101e+000  3.232e+000
 2.926e+002  3.623e+000  4.750e+000
 2.927e+002  4.011e+000  6.358e+000
 2.928e+002  4.323e+000  8.030e+000
 2.929e+002  4.396e+000  1.064e+001
 2.930e+002  4.479e+000  1.328e+001
 2.930e+002  4.490e+000  1.594e+001
 2.930e+002  4.482e+000  1.860e+001
 2.930e+002  4.515e+000  2.127e+001
 2.931e+002  4.584e+000  2.396e+001
 2.932e+002  4.728e+000  2.663e+001
 2.934e+002  4.921e+000  2.929e+001
 2.881e+002  0.000e+000  5.766e-002
 2.898e+002  2.005e+000  6.033e-001
 2.910e+002  3.360e+000  1.827e+000
 2.916e+002  4.135e+000  3.240e+000
 2.918e+002  4.831e+000  4.729e+000
 2.919e+002  5.347e+000  6.337e+000
 2.920e+002  5.763e+000  8.030e+000
 2.922e+002  5.862e+000  1.055e+001
 2.923e+002  5.972e+000  1.311e+001
 2.923e+002  5.986e+000  1.570e+001
 2.923e+002  5.976e+000  1.830e+001
 2.924e+002  6.020e+000  2.090e+001
 2.925e+002  6.112e+000  2.352e+001
 2.926e+002  6.305e+000  2.613e+001
 2.928e+002  6.562e+000  2.873e+001
 2.874e+002  0.000e+000  9.571e-003
 2.888e+002  2.178e+000  4.289e-001
 2.899e+002  3.790e+000  1.508e+000
 2.906e+002  4.941e+000  3.011e+000
 2.909e+002  5.918e+000  4.607e+000
 2.911e+002  6.636e+000  6.293e+000
 2.912e+002  7.188e+000  8.030e+000
 2.915e+002  7.327e+000  1.046e+001
 2.916e+002  7.464e+000  1.295e+001
 2.917e+002  7.483e+000  1.547e+001
 2.917e+002  7.470e+000  1.799e+001
 2.917e+002  7.525e+000  2.053e+001
 2.918e+002  7.640e+000  2.309e+001
 2.920e+002  7.881e+000  2.562e+001
 2.923e+002  8.202e+000  2.816e+001
 2.866e+002  0.000e+000  0.000e+000
 2.879e+002  2.351e+000  2.544e-001
 2.889e+002  4.219e+000  1.189e+000
 2.896e+002  5.629e+000  2.658e+000
 2.898e+002  6.816e+000  4.322e+000
 2.900e+002  7.689e+000  6.134e+000
 2.901e+002  8.357e+000  8.030e+000
 2.904e+002  8.553e+000  1.042e+001
 2.907e+002  8.764e+000  1.284e+001
 2.907e+002  8.805e+000  1.529e+001
 2.908e+002  8.803e+000  1.776e+001
 2.909e+002  8.911e+000  2.022e+001
 2.911e+002  9.107e+000  2.269e+001
 2.915e+002  9.457e+000  2.512e+001
 2.917e+002  9.843e+000  2.759e+001
 2.858e+002  0.000e+000  0.000e+000
 2.869e+002  2.491e+000  1.860e-001
 2.879e+002  4.649e+000  8.696e-001
 2.885e+002  6.317e+000  2.306e+000
 2.887e+002  7.713e+000  4.038e+000
 2.889e+002  8.742e+000  5.975e+000
 2.890e+002  9.525e+000  8.030e+000
 2.893e+002  9.699e+000  1.039e+001
 2.895e+002  9.907e+000  1.277e+001
 2.895e+002  9.944e+000  1.519e+001
 2.896e+002  9.941e+000  1.760e+001
 2.897e+002  1.006e+001  2.003e+001
 2.899e+002  1.030e+001  2.245e+001
 2.903e+002  1.071e+001  2.481e+001
 2.909e+002  1.133e+001  2.710e+001
 2.850e+002  0.000e+000  0.000e+000
 2.860e+002  2.618e+000  1.609e-001
 2.869e+002  4.984e+000  7.104e-001
 2.874e+002  6.973e+000  1.983e+000
 2.876e+002  8.608e+000  3.755e+000
 2.878e+002  9.796e+000  5.817e+000
 2.879e+002  1.069e+001  8.030e+000
 2.881e+002  1.084e+001  1.036e+001
 2.883e+002  1.105e+001  1.270e+001
 2.883e+002  1.108e+001  1.508e+001
 2.884e+002  1.108e+001  1.745e+001
 2.885e+002  1.121e+001  1.983e+001
 2.887e+002  1.150e+001  2.220e+001
 2.890e+002  1.186e+001  2.454e+001
 2.895e+002  1.247e+001  2.682e+001
 2.842e+002  0.000e+000  0.000e+000
 2.850e+002  2.745e+000  1.357e-001
 2.858e+002  5.279e+000  6.187e-001
 2.862e+002  7.487e+000  1.792e+000
 2.864e+002  9.339e+000  3.538e+000
 2.865e+002  1.070e+001  5.691e+000
 2.866e+002  1.173e+001  8.030e+000
 2.869e+002  1.188e+001  1.032e+001
 2.870e+002  1.210e+001  1.263e+001
 2.871e+002  1.214e+001  1.497e+001
 2.871e+002  1.214e+001  1.730e+001
 2.872e+002  1.230e+001  1.964e+001
 2.875e+002  1.266e+001  2.195e+001
 2.877e+002  1.301e+001  2.428e+001
 2.881e+002  1.360e+001  2.653e+001
 2.834e+002  0.000e+000  0.000e+000
 2.841e+002  2.872e+000  1.105e-001
 2.847e+002  5.574e+000  5.271e-001
 2.850e+002  8.000e+000  1.601e+000
 2.852e+002  1.007e+001  3.321e+000
 2.853e+002  1.158e+001  5.570e+000
 2.854e+002  1.274e+001  8.030e+000
 2.856e+002  1.282e+001  1.028e+001
 2.857e+002  1.303e+001  1.256e+001
 2.857e+002  1.307e+001  1.485e+001
 2.857e+002  1.307e+001  1.715e+001
 2.858e+002  1.322e+001  1.944e+001
 2.860e+002  1.355e+001  2.172e+001
 2.862e+002  1.391e+001  2.401e+001
 2.866e+002  1.455e+001  2.623e+001
 2.826e+002  0.000e+000  0.000e+000
 2.831e+002  2.999e+000  8.534e-002
 2.836e+002  5.870e+000  4.354e-001
 2.838e+002  8.514e+000  1.410e+000
 2.839e+002  1.080e+001  3.104e+000
 2.840e+002  1.245e+001  5.449e+000
 2.841e+002  1.374e+001  8.030e+000
 2.842e+002  1.376e+001  1.025e+001
 2.843e+002  1.397e+001  1.248e+001
 2.843e+002  1.400e+001  1.474e+001
 2.844e+002  1.400e+001  1.700e+001
 2.844e+002  1.414e+001  1.925e+001
 2.846e+002  1.443e+001  2.149e+001
 2.847e+002  1.479e+001  2.374e+001
 2.850e+002  1.539e+001  2.592e+001
 2.818e+002  0.000e+000  0.000e+000
 2.822e+002  3.126e+000  6.017e-002
 2.825e+002  6.165e+000  3.437e-001
 2.826e+002  9.027e+000  1.219e+000
 2.827e+002  1.153e+001  2.888e+000
 2.828e+002  1.333e+001  5.329e+000
 2.828e+002  1.474e+001  8.030e+000
 2.829e+002  1.471e+001  1.021e+001
 2.830e+002  1.490e+001  1.241e+001
 2.830e+002  1.493e+001  1.463e+001
 2.830e+002  1.493e+001  1.684e+001
 2.830e+002  1.506e+001  1.906e+001
 2.831e+002  1.532e+001  2.127e+001
 2.832e+002  1.567e+001  2.346e+001
 2.834e+002  1.623e+001  2.561e+001
 2.810e+002  0.000e+000  0.000e+000
 2.812e+002  3.253e+000  3.499e-002
 2.814e+002  6.460e+000  2.521e-001
 2.814e+002  9.541e+000  1.028e+000
 2.815e+002  1.226e+001  2.671e+000
 2.815e+002  1.421e+001  5.208e+000
 2.815e+002  1.575e+001  8.030e+000
 2.816e+002  1.565e+001  1.017e+001
 2.816e+002  1.583e+001  1.234e+001
 2.816e+002  1.587e+001  1.452e+001
 2.816e+002  1.587e+001  1.669e+001
 2.816e+002  1.598e+001  1.887e+001
 2.817e+002  1.621e+001  2.104e+001
 2.817e+002  1.654e+001  2.319e+001
 2.818e+002  1.707e+001  2.531e+001
 2.803e+002  0.000e+000  0.000e+000
 2.803e+002  3.380e+000  9.819e-003
 2.803e+002  6.755e+000  1.604e-001
 2.803e+002  1.005e+001  8.373e-001
 2.803e+002  1.299e+001  2.454e+000
 2.803e+002  1.509e+001  5.087e+000
 2.803e+002  1.675e+001  8.030e+000
 2.803e+002  1.659e+001  1.013e+001
 2.803e+002  1.677e+001  1.226e+001
 2.803e+002  1.680e+001  1.440e+001
 2.803e+002  1.680e+001  1.654e+001
 2.803e+002  1.690e+001  1.868e+001
 2.803e+002  1.710e+001  2.081e+001
 2.803e+002  1.742e+001  2.292e+001
 2.803e+002  1.792e+001  2.500e+001
 2.803e+002  2.240e+000  2.467e-004
 2.803e+002  4.480e+000  1.713e-002
 2.803e+002  6.716e+000  1.375e-001
 2.803e+002  8.921e+000  5.003e-001
 2.803e+002  1.103e+001  1.231e+000
 2.803e+002  1.293e+001  2.404e+000
 2.803e+002  1.447e+001  4.023e+000
 2.803e+002  1.562e+001  5.934e+000
 2.803e+002  1.642e+001  8.030e+000
 2.803e+002  1.655e+001  9.734e+000
 2.803e+002  1.672e+001  1.143e+001
 2.803e+002  1.678e+001  1.314e+001
 2.803e+002  1.680e+001  1.485e+001
 2.803e+002  1.680e+001  1.656e+001
 2.803e+002  1.685e+001  1.827e+001
 2.803e+002  1.699e+001  1.997e+001
 2.803e+002  1.721e+001  2.166e+001
 2.803e+002  1.746e+001  2.335e+001
 2.747e+002  0.000e+000  0.000e+000
 2.747e+002  2.566e+000  6.062e-005
 2.747e+002  5.130e+000  4.253e-003
 2.747e+002  7.687e+000  3.783e-002
 2.748e+002  1.023e+001  2.025e-001
 2.749e+002  1.269e+001  7.455e-001
 2.750e+002  1.495e+001  1.808e+000
 2.751e+002  1.682e+001  3.465e+000
 2.751e+002  1.806e+001  5.653e+000
 2.751e+002  1.895e+001  8.030e+000
 2.751e+002  1.903e+001  9.731e+000
 2.751e+002  1.915e+001  1.143e+001
 2.751e+002  1.919e+001  1.313e+001
 2.751e+002  1.919e+001  1.484e+001
 2.751e+002  1.918e+001  1.654e+001
 2.751e+002  1.920e+001  1.824e+001
 2.751e+002  1.934e+001  1.994e+001
 2.751e+002  1.953e+001  2.163e+001
 2.751e+002  1.974e+001  2.332e+001
 2.750e+002  2.002e+001  2.500e+001
 2.691e+002  0.000e+000  0.000e+000
 2.691e+002  2.828e+000  0.000e+000
 2.691e+002  5.654e+000  0.000e+000
 2.692e+002  8.474e+000  2.050e-003
 2.693e+002  1.128e+001  6.357e-002
 2.694e+002  1.404e+001  4.181e-001
 2.696e+002  1.664e+001  1.331e+000
 2.698e+002  1.882e+001  2.983e+000
 2.698e+002  2.018e+001  5.392e+000
 2.698e+002  2.111e+001  8.030e+000
 2.698e+002  2.107e+001  9.719e+000
 2.698e+002  2.114e+001  1.142e+001
 2.698e+002  2.117e+001  1.312e+001
 2.698e+002  2.116e+001  1.482e+001
 2.698e+002  2.115e+001  1.652e+001
 2.699e+002  2.116e+001  1.822e+001
 2.699e+002  2.126e+001  1.992e+001
 2.698e+002  2.140e+001  2.161e+001
 2.698e+002  2.154e+001  2.331e+001
 2.697e+002  2.169e+001  2.500e+001
 2.635e+002  0.000e+000  0.000e+000
 2.636e+002  3.023e+000  0.000e+000
 2.636e+002  6.044e+000  0.000e+000
 2.636e+002  9.062e+000  0.000e+000
 2.637e+002  1.207e+001  2.444e-002
 2.639e+002  1.506e+001  2.252e-001
 2.641e+002  1.794e+001  9.632e-001
 2.644e+002  2.040e+001  2.584e+000
 2.644e+002  2.188e+001  5.161e+000
 2.644e+002  2.275e+001  8.030e+000
 2.643e+002  2.258e+001  9.705e+000
 2.643e+002  2.262e+001  1.140e+001
 2.643e+002  2.263e+001  1.310e+001
 2.644e+002  2.263e+001  1.480e+001
 2.644e+002  2.263e+001  1.650e+001
 2.644e+002  2.263e+001  1.820e+001
 2.644e+002  2.268e+001  1.990e+001
 2.644e+002  2.275e+001  2.160e+001
 2.643e+002  2.282e+001  2.330e+001
 2.642e+002  2.290e+001  2.500e+001
 2.580e+002  0.000e+000  0.000e+000
 2.580e+002  3.148e+000  0.000e+000
 2.580e+002  6.296e+000  0.000e+000
 2.581e+002  9.440e+000  0.000e+000
 2.582e+002  1.258e+001  1.393e-002
 2.583e+002  1.570e+001  1.316e-001
 2.585e+002  1.874e+001  6.864e-001
 2.588e+002  2.133e+001  2.291e+000
 2.588e+002  2.282e+001  4.993e+000
 2.587e+002  2.349e+001  8.030e+000
 2.587e+002  2.339e+001  9.714e+000
 2.587e+002  2.341e+001  1.141e+001
 2.587e+002  2.341e+001  1.311e+001
 2.588e+002  2.341e+001  1.481e+001
 2.588e+002  2.340e+001  1.651e+001
 2.588e+002  2.340e+001  1.821e+001
 2.588e+002  2.343e+001  1.991e+001
 2.588e+002  2.348e+001  2.160e+001
 2.588e+002  2.352e+001  2.330e+001
 2.586e+002  2.358e+001  2.500e+001
 2.524e+002  0.000e+000  0.000e+000
 2.524e+002  3.274e+000  0.000e+000
 2.524e+002  6.547e+000  0.000e+000
 2.525e+002  9.818e+000  0.000e+000
 2.526e+002  1.308e+001  3.415e-003
 2.527e+002  1.633e+001  3.792e-002
 2.529e+002  1.953e+001  4.096e-001
 2.532e+002  2.226e+001  1.998e+000
 2.532e+002  2.376e+001  4.825e+000
 2.531e+002  2.423e+001  8.030e+000
 2.530e+002  2.420e+001  9.723e+000
 2.530e+002  2.420e+001  1.142e+001
 2.531e+002  2.420e+001  1.312e+001
 2.531e+002  2.419e+001  1.482e+001
 2.532e+002  2.418e+001  1.651e+001
 2.533e+002  2.417e+001  1.821e+001
 2.533e+002  2.418e+001  1.991e+001
 2.532e+002  2.420e+001  2.161e+001
 2.532e+002  2.423e+001  2.330e+001
 2.531e+002  2.426e+001  2.500e+001
 2.468e+002  0.000e+000  0.000e+000
 2.468e+002  3.353e+000  0.000e+000
 2.469e+002  6.706e+000  0.000e+000
 2.469e+002  1.006e+001  0.000e+000
 2.470e+002  1.341e+001  0.000e+000
 2.471e+002  1.675e+001  3.775e-003
 2.473e+002  2.007e+001  2.523e-001
 2.475e+002  2.292e+001  1.773e+000
 2.475e+002  2.434e+001  4.711e+000
 2.474e+002  2.464e+001  8.030e+000
 2.473e+002  2.463e+001  9.727e+000
 2.474e+002  2.462e+001  1.142e+001
 2.474e+002  2.462e+001  1.312e+001
 2.475e+002  2.462e+001  1.482e+001
 2.476e+002  2.462e+001  1.651e+001
 2.476e+002  2.462e+001  1.821e+001
 2.477e+002  2.462e+001  1.991e+001
 2.476e+002  2.462e+001  2.161e+001
 2.476e+002  2.463e+001  2.330e+001
 2.475e+002  2.464e+001  2.500e+001
 2.413e+002  0.000e+000  0.000e+000
 2.413e+002  3.413e+000  0.000e+000
 2.413e+002  6.826e+000  0.000e+000
 2.413e+002  1.024e+001  0.000e+000
 2.414e+002  1.365e+001  0.000e+000
 2.415e+002  1.705e+001  1.863e-003
 2.417e+002  2.044e+001  1.724e-001
 2.419e+002  2.336e+001  1.600e+000
 2.418e+002  2.463e+001  4.637e+000
 2.417e+002  2.481e+001  8.030e+000
 2.416e+002  2.480e+001  9.727e+000
 2.417e+002  2.480e+001  1.142e+001
 2.418e+002  2.480e+001  1.312e+001
 2.419e+002  2.479e+001  1.482e+001
 2.419e+002  2.479e+001  1.651e+001
 2.420e+002  2.479e+001  1.821e+001
 2.420e+002  2.479e+001  1.991e+001
 2.420e+002  2.479e+001  2.161e+001
 2.420e+002  2.479e+001  2.330e+001
 2.418e+002  2.480e+001  2.500e+001
 2.357e+002  0.000e+000  0.000e+000
 2.357e+002  3.470e+000  0.000e+000
 2.357e+002  6.941e+000  0.000e+000
 2.357e+002  1.041e+001  0.000e+000
 2.358e+002  1.388e+001  0.000e+000
 2.359e+002  1.735e+001  0.000e+000
 2.360e+002  2.081e+001  9.245e-002
 2.362e+002  2.381e+001  1.427e+000
 2.361e+002  2.493e+001  4.564e+000
 2.360e+002  2.498e+001  8.030e+000
 2.359e+002  2.497e+001  9.727e+000
 2.360e+002  2.497e+001  1.142e+001
 2.361e+002  2.497e+001  1.312e+001
 2.362e+002  2.497e+001  1.482e+001
 2.363e+002  2.496e+001  1.651e+001
 2.364e+002  2.496e+001  1.821e+001
 2.364e+002  2.496e+001  1.991e+001
 2.364e+002  2.496e+001  2.161e+001
 2.363e+002  2.496e+001  2.330e+001
 2.362e+002  2.497e+001  2.500e+001
 2.301e+002  0.000e+000  0.000e+000
 2.301e+002  3.492e+000  0.000e+000
 2.301e+002  6.985e+000  0.000e+000
 2.301e+002  1.048e+001  0.000e+000
 2.301e+002  1.397e+001  0.000e+000
 2.302e+002  1.746e+001  0.000e+000
 2.304e+002  2.094e+001  7.336e-002
 2.305e+002  2.399e+001  1.356e+000
 2.304e+002  2.496e+001  4.540e+000
 2.302e+002  2.499e+001  8.030e+000
 2.302e+002  2.498e+001  9.727e+000
 2.303e+002  2.498e+001  1.142e+001
 2.304e+002  2.498e+001  1.312e+001
 2.305e+002  2.498e+001  1.482e+001
 2.306e+002  2.498e+001  1.651e+001
 2.307e+002  2.498e+001  1.821e+001
 2.308e+002  2.498e+001  1.991e+001
 2.308e+002  2.498e+001  2.161e+001
 2.307e+002  2.498e+001  2.330e+001
 2.306e+002  2.498e+001  2.500e+001
 2.246e+002  0.000e+000  0.000e+000
 2.246e+002  3.514e+000  0.000e+000
 2.245e+002  7.029e+000  0.000e+000
 2.245e+002  1.054e+001  0.000e+000
 2.245e+002  1.406e+001  0.000e+000
 2.246e+002  1.757e+001  0.000e+000
 2.247e+002  2.108e+001  5.459e-002
 2.248e+002  2.416e+001  1.288e+000
 2.247e+002  2.498e+001  4.517e+000
 2.245e+002  2.500e+001  8.030e+000
 2.245e+002  2.499e+001  9.727e+000
 2.246e+002  2.499e+001  1.142e+001
 2.247e+002  2.499e+001  1.312e+001
 2.249e+002  2.499e+001  1.482e+001
 2.250e+002  2.499e+001  1.651e+001
 2.251e+002  2.499e+001  1.821e+001
 2.252e+002  2.499e+001  1.991e+001
 2.251e+002  2.499e+001  2.161e+001
 2.251e+002  2.499e+001  2.330e+001
 2.250e+002  2.499e+001  2.500e+001
 2.190e+002  0.000e+000  0.000e+000
 2.190e+002  3.530e+000  0.000e+000
 2.189e+002  7.060e+000  0.000e+000
 2.189e+002  1.059e+001  0.000e+000
 2.189e+002  1.412e+001  0.000e+000
 2.190e+002  1.765e+001  0.000e+000
 2.191e+002  2.118e+001  4.001e-002
 2.192e+002  2.428e+001  1.235e+000
 2.190e+002  2.500e+001  4.500e+000
 2.188e+002  2.500e+001  8.030e+000
 2.188e+002  2.500e+001  9.727e+000
 2.189e+002  2.500e+001  1.142e+001
 2.191e+002  2.500e+001  1.312e+001
 2.192e+002  2.500e+001  1.482e+001
 2.193e+002  2.500e+001  1.652e+001
 2.195e+002  2.500e+001  1.821e+001
 2.195e+002  2.500e+001  1.991e+001
 2.195e+002  2.500e+001  2.161e+001
 2.195e+002  2.500e+001  2.330e+001
 2.194e+002  2.500e+001  2.500e+001
 2.134e+002  0.000e+000  0.000e+000
 2.134e+002  3.537e+000  0.000e+000
 2.134e+002  7.075e+000  0.000e+000
 2.133e+002  1.061e+001  0.000e+000
 2.133e+002  1.415e+001  0.000e+000
 2.133e+002  1.769e+001  0.000e+000
 2.134e+002  2.122e+001  3.204e-002
 2.135e+002  2.433e+001  1.209e+000
 2.133e+002  2.500e+001  4.493e+000
 2.131e+002  2.500e+001  8.030e+000
 2.131e+002  2.500e+001  9.727e+000
 2.132e+002  2.500e+001  1.142e+001
 2.134e+002  2.500e+001  1.312e+001
 2.135e+002  2.500e+001  1.482e+001
 2.137e+002  2.500e+001  1.652e+001
 2.138e+002  2.500e+001  1.821e+001
 2.139e+002  2.500e+001  1.991e+001
 2.139e+002  2.500e+001  2.161e+001
 2.139e+002  2.500e+001  2.330e+001
 2.138e+002  2.500e+001  2.500e+001
 2.079e+002  0.000e+000  0.000e+000
 2.078e+002  3.544e+000  0.000e+000
 2.078e+002  7.089e+000  0.000e+000
 2.077e+002  1.063e+001  0.000e+000
 2.077e+002  1.418e+001  0.000e+000
 2.077e+002  1.772e+001  0.000e+000
 2.077e+002  2.127e+001  2.407e-002
 2.078e+002  2.438e+001  1.183e+000
 2.076e+002  2.500e+001  4.485e+000
 2.074e+002  2.500e+001  8.030e+000
 2.074e+002  2.500e+001  9.727e+000
 2.075e+002  2.500e+001  1.142e+001
 2.077e+002  2.500e+001  1.312e+001
 2.079e+002  2.500e+001  1.482e+001
 2.080e+002  2.500e+001  1.652e+001
 2.082e+002  2.500e+001  1.821e+001
 2.083e+002  2.500e+001  1.991e+001
 2.083e+002  2.500e+001  2.161e+001
 2.082e+002  2.500e+001  2.330e+001
 2.081e+002  2.500e+001  2.500e+001
 2.023e+002  0.000e+000  0.000e+000
 2.023e+002  3.552e+000  0.000e+000
 2.022e+002  7.104e+000  0.000e+000
 2.021e+002  1.066e+001  0.000e+000
 2.021e+002  1.421e+001  0.000e+000
 2.021e+002  1.776e+001  0.000e+000
 2.021e+002  2.131e+001  1.564e-002
 2.021e+002  2.442e+001  1.142e+000
 2.019e+002  2.500e+001  4.478e+000
 2.017e+002  2.500e+001  8.030e+000
 2.017e+002  2.500e+001  9.727e+000
 2.018e+002  2.500e+001  1.142e+001
 2.020e+002  2.500e+001  1.312e+001
 2.022e+002  2.500e+001  1.482e+001
 2.024e+002  2.500e+001  1.652e+001
 2.025e+002  2.500e+001  1.821e+001
 2.026e+002  2.500e+001  1.991e+001
 2.027e+002  2.500e+001  2.161e+001
 2.026e+002  2.500e+001  2.330e+001
 2.025e+002  2.500e+001  2.500e+001
 1.967e+002  0.000e+000  0.000e+000
 1.967e+002  3.559e+000  0.000e+000
 1.966e+002  7.119e+000  0.000e+000
 1.965e+002  1.068e+001  0.000e+000
 1.965e+002  1.424e+001  0.000e+000
 1.964e+002  1.780e+001  0.000e+000
 1.964e+002  2.136e+001  7.072e-003
 1.964e+002  2.446e+001  1.096e+000
 1.962e+002  2.500e+001  4.470e+000
 1.960e+002  2.500e+001  8.030e+000
 1.960e+002  2.500e+001  9.727e+000
 1.962e+002  2.500e+001  1.142e+001
 1.963e+002  2.500e+001  1.312e+001
 1.966e+002  2.500e+001  1.482e+001
 1.967e+002  2.500e+001  1.652e+001
 1.969e+002  2.500e+001  1.821e+001
 1.970e+002  2.500e+001  1.991e+001
 1.970e+002  2.500e+001  2.161e+001
 1.970e+002  2.500e+001  2.330e+001
 1.969e+002  2.500e+001  2.500e+001
 1.911e+002  0.000e+000  0.000e+000
 1.911e+002  3.565e+000  0.000e+000
 1.910e+002  7.129e+000  0.000e+000
 1.909e+002  1.069e+001  0.000e+000
 1.909e+002  1.426e+001  0.000e+000
 1.908e+002  1.782e+001  0.000e+000
 1.908e+002  2.139e+001  1.863e-003
 1.907e+002  2.449e+001  1.069e+000
 1.905e+002  2.500e+001  4.466e+000
 1.902e+002  2.500e+001  8.030e+000
 1.903e+002  2.500e+001  9.727e+000
 1.905e+002  2.500e+001  1.142e+001
 1.907e+002  2.500e+001  1.312e+001
 1.909e+002  2.500e+001  1.482e+001
 1.911e+002  2.500e+001  1.652e+001
 1.913e+002  2.500e+001  1.821e+001
 1.914e+002  2.500e+001  1.991e+001
 1.914e+002  2.500e+001  2.161e+001
 1.914e+002  2.500e+001  2.330e+001
 1.913e+002  2.500e+001  2.500e+001
 1.856e+002  0.000e+000  0.000e+000
 1.855e+002  3.556e+000  0.000e+000
 1.855e+002  7.112e+000  0.000e+000
 1.854e+002  1.067e+001  0.000e+000
 1.852e+002  1.422e+001  0.000e+000
 1.852e+002  1.778e+001  0.000e+000
 1.851e+002  2.133e+001  1.256e-002
 1.850e+002  2.444e+001  1.123e+000
 1.848e+002  2.500e+001  4.475e+000
 1.845e+002  2.500e+001  8.030e+000
 1.846e+002  2.500e+001  9.727e+000
 1.848e+002  2.500e+001  1.142e+001
 1.850e+002  2.500e+001  1.312e+001
 1.852e+002  2.500e+001  1.482e+001
 1.854e+002  2.500e+001  1.652e+001
 1.856e+002  2.500e+001  1.821e+001
 1.858e+002  2.500e+001  1.991e+001
 1.858e+002  2.500e+001  2.161e+001
 1.858e+002  2.500e+001  2.330e+001
 1.857e+002  2.500e+001  2.500e+001
 1.800e+002  0.000e+000  0.000e+000
 1.800e+002  3.547e+000  0.000e+000
 1.799e+002  7.094e+000  0.000e+000
 1.798e+002  1.064e+001  0.000e+000
 1.796e+002  1.419e+001  0.000e+000
 1.795e+002  1.773e+001  0.000e+000
 1.794e+002  2.128e+001  2.326e-002
 1.794e+002  2.439e+001  1.177e+000
 1.791e+002  2.500e+001  4.484e+000
 1.788e+002  2.500e+001  8.030e+000
 1.789e+002  2.500e+001  9.727e+000
 1.791e+002  2.500e+001  1.142e+001
 1.793e+002  2.500e+001  1.312e+001
 1.796e+002  2.500e+001  1.482e+001
 1.798e+002  2.500e+001  1.652e+001
 1.800e+002  2.500e+001  1.821e+001
 1.801e+002  2.500e+001  1.991e+001
 1.802e+002  2.500e+001  2.161e+001
 1.801e+002  2.500e+001  2.330e+001
 1.801e+002  2.500e+001  2.500e+001
 1.744e+002  0.000e+000  0.000e+000
 1.744e+002  3.544e+000  0.000e+000
 1.743e+002  7.089e+000  0.000e+000
 1.742e+002  1.063e+001  0.000e+000
 1.740e+002  1.418e+001  0.000e+000
 1.739e+002  1.772e+001  0.000e+000
 1.738e+002  2.127e+001  2.485e-002
 1.737e+002  2.438e+001  1.185e+000
 1.734e+002  2.500e+001  4.485e+000
 1.731e+002  2.500e+001  8.030e+000
 1.732e+002  2.500e+001  9.727e+000
 1.734e+002  2.500e+001  1.142e+001
 1.736e+002  2.500e+001  1.312e+001
 1.739e+002  2.500e+001  1.482e+001
 1.741e+002  2.500e+001  1.652e+001
 1.743e+002  2.500e+001  1.821e+001
 1.745e+002  2.500e+001  1.991e+001
 1.745e+002  2.500e+001  2.161e+001
 1.745e+002  2.500e+001  2.330e+001
 1.744e+002  2.500e+001  2.500e+001
 1.689e+002  0.000e+000  0.000e+000
 1.688e+002  3.548e+000  0.000e+000
 1.687e+002  7.097e+000  0.000e+000
 1.686e+002  1.065e+001  0.000e+000
 1.684e+002  1.419e+001  0.000e+000
 1.683e+002  1.774e+001  0.000e+000
 1.681e+002  2.129e+001  1.950e-002
 1.680e+002  2.440e+001  1.161e+000
 1.677e+002  2.500e+001  4.481e+000
 1.674e+002  2.500e+001  8.030e+000
 1.675e+002  2.500e+001  9.727e+000
 1.677e+002  2.500e+001  1.142e+001
 1.680e+002  2.500e+001  1.312e+001
 1.682e+002  2.500e+001  1.482e+001
 1.685e+002  2.500e+001  1.652e+001
 1.687e+002  2.500e+001  1.821e+001
 1.689e+002  2.500e+001  1.991e+001
 1.689e+002  2.500e+001  2.161e+001
 1.689e+002  2.500e+001  2.330e+001
 1.688e+002  2.500e+001  2.500e+001
 1.633e+002  0.000e+000  0.000e+000
 1.633e+002  3.552e+000  0.000e+000
 1.631e+002  7.105e+000  0.000e+000
 1.630e+002  1.066e+001  0.000e+000
 1.628e+002  1.421e+001  0.000e+000
 1.626e+002  1.776e+001  0.000e+000
 1.625e+002  2.132e+001  1.415e-002
 1.623e+002  2.442e+001  1.136e+000
 1.620e+002  2.500e+001  4.477e+000
 1.617e+002  2.500e+001  8.030e+000
 1.618e+002  2.500e+001  9.727e+000
 1.620e+002  2.500e+001  1.142e+001
 1.623e+002  2.500e+001  1.312e+001
 1.626e+002  2.500e+001  1.482e+001
 1.628e+002  2.500e+001  1.652e+001
 1.631e+002  2.500e+001  1.821e+001
 1.632e+002  2.500e+001  1.991e+001
 1.633e+002  2.500e+001  2.161e+001
 1.633e+002  2.500e+001  2.330e+001
 1.632e+002  2.500e+001  2.500e+001
 1.577e+002  0.000e+000  0.000e+000
 1.577e+002  3.557e+000  0.000e+000
 1.575e+002  7.113e+000  0.000e+000
 1.574e+002  1.067e+001  0.000e+000
 1.572e+002  1.423e+001  0.000e+000
 1.570e+002  1.779e+001  0.000e+000
 1.568e+002  2.134e+001  8.804e-003
 1.566e+002  2.445e+001  1.112e+000
 1.563e+002  2.500e+001  4.472e+000
 1.560e+002  2.500e+001  8.030e+000
 1.561e+002  2.500e+001  9.727e+000
 1.563e+002  2.500e+001  1.142e+001
 1.566e+002  2.500e+001  1.312e+001
 1.569e+002  2.500e+001  1.482e+001
 1.572e+002  2.500e+001  1.652e+001
 1.574e+002  2.500e+001  1.821e+001
 1.576e+002  2.500e+001  1.991e+001
 1.577e+002  2.500e+001  2.161e+001
 1.576e+002  2.500e+001  2.330e+001
 1.576e+002  2.500e+001  2.500e+001
 1.522e+002  0.000e+000  0.000e+000
 1.521e+002  3.561e+000  0.000e+000
 1.520e+002  7.121e+000  0.000e+000
 1.518e+002  1.068e+001  0.000e+000
 1.516e+002  1.424e+001  0.000e+000
 1.514e+002  1.781e+001  0.000e+000
 1.512e+002  2.137e+001  3.454e-003
 1.509e+002  2.447e+001  1.088e+000
 1.506e+002  2.500e+001  4.468e+000
 1.502e+002  2.500e+001  8.030e+000
 1.504e+002  2.500e+001  9.727e+000
 1.506e+002  2.500e+001  1.142e+001
 1.509e+002  2.500e+001  1.312e+001
 1.512e+002  2.500e+001  1.482e+001
 1.515e+002  2.500e+001  1.652e+001
 1.518e+002  2.500e+001  1.821e+001
 1.520e+002  2.500e+001  1.991e+001
 1.520e+002  2.500e+001  2.161e+001
 1.520e+002  2.500e+001  2.330e+001
 1.520e+002  2.500e+001  2.500e+001
 1.466e+002  0.000e+000  0.000e+000
 1.465e+002  3.564e+000  0.000e+000
 1.464e+002  7.128e+000  0.000e+000
 1.462e+002  1.069e+001  0.000e+000
 1.460e+002  1.426e+001  0.000e+000
 1.457e+002  1.782e+001  0.000e+000
 1.455e+002  2.138e+001  0.000e+000
 1.452e+002  2.448e+001  1.073e+000
 1.449e+002  2.500e+001  4.466e+000
 1.445e+002  2.500e+001  8.030e+000
 1.447e+002  2.500e+001  9.727e+000
 1.449e+002  2.500e+001  1.142e+001
 1.453e+002  2.500e+001  1.312e+001
 1.456e+002  2.500e+001  1.482e+001
 1.459e+002  2.500e+001  1.652e+001
 1.462e+002  2.500e+001  1.821e+001
 1.464e+002  2.500e+001  1.991e+001
 1.464e+002  2.500e+001  2.161e+001
 1.464e+002  2.500e+001  2.330e+001
 1.463e+002  2.500e+001  2.500e+001
 1.410e+002  0.000e+000  0.000e+000
 1.410e+002  3.564e+000  0.000e+000
 1.408e+002  7.128e+000  0.000e+000
 1.406e+002  1.069e+001  0.000e+000
 1.404e+002  1.426e+001  0.000e+000
 1.401e+002  1.782e+001  0.000e+000
 1.398e+002  2.138e+001  0.000e+000
 1.396e+002  2.448e+001  1.073e+000
 1.392e+002  2.500e+001  4.466e+000
 1.388e+002  2.500e+001  8.030e+000
 1.390e+002  2.500e+001  9.727e+000
 1.392e+002  2.500e+001  1.142e+001
 1.396e+002  2.500e+001  1.312e+001
 1.399e+002  2.500e+001  1.482e+001
 1.402e+002  2.500e+001  1.652e+001
 1.405e+002  2.500e+001  1.821e+001
 1.407e+002  2.500e+001  1.991e+001
 1.408e+002  2.500e+001  2.161e+001
 1.408e+002  2.500e+001  2.330e+001
 1.407e+002  2.500e+001  2.500e+001
 1.355e+002  0.000e+000  0.000e+000
 1.354e+002  3.564e+000  0.000e+000
 1.352e+002  7.128e+000  0.000e+000
 1.350e+002  1.069e+001  0.000e+000
 1.347e+002  1.426e+001  0.000e+000
 1.345e+002  1.782e+001  0.000e+000
 1.342e+002  2.138e+001  0.000e+000
 1.339e+002  2.448e+001  1.073e+000
 1.335e+002  2.500e+001  4.466e+000
 1.331e+002  2.500e+001  8.030e+000
 1.333e+002  2.500e+001  9.727e+000
 1.336e+002  2.500e+001  1.142e+001
 1.339e+002  2.500e+001  1.312e+001
 1.343e+002  2.500e+001  1.482e+001
 1.346e+002  2.500e+001  1.652e+001
 1.349e+002  2.500e+001  1.821e+001
 1.351e+002  2.500e+001  1.991e+001
 1.352e+002  2.500e+001  2.161e+001
 1.352e+002  2.500e+001  2.330e+001
 1.351e+002  2.500e+001  2.500e+001
 1.299e+002  0.000e+000  0.000e+000
 1.298e+002  3.561e+000  0.000e+000
 1.296e+002  7.121e+000  0.000e+000
 1.294e+002  1.068e+001  0.000e+000
 1.291e+002  1.424e+001  0.000e+000
 1.288e+002  1.780e+001  0.000e+000
 1.285e+002  2.135e+001  6.101e-003
 1.282e+002  2.445e+001  1.104e+000
 1.278e+002  2.500e+001  4.472e+000
 1.274e+002  2.500e+001  8.030e+000
 1.275e+002  2.500e+001  9.727e+000
 1.279e+002  2.500e+001  1.142e+001
 1.282e+002  2.500e+001  1.312e+001
 1.286e+002  2.500e+001  1.482e+001
 1.289e+002  2.500e+001  1.652e+001
 1.292e+002  2.500e+001  1.821e+001
 1.295e+002  2.500e+001  1.991e+001
 1.295e+002  2.500e+001  2.161e+001
 1.295e+002  2.500e+001  2.330e+001
 1.295e+002  2.500e+001  2.500e+001
 1.243e+002  0.000e+000  0.000e+000
 1.242e+002  3.554e+000  0.000e+000
 1.241e+002  7.108e+000  0.000e+000
 1.238e+002  1.066e+001  0.000e+000
 1.235e+002  1.421e+001  0.000e+000
 1.232e+002  1.776e+001  0.000e+000
 1.229e+002  2.131e+001  1.426e-002
 1.225e+002  2.442e+001  1.143e+000
 1.221e+002  2.500e+001  4.478e+000
 1.217e+002  2.500e+001  8.030e+000
 1.218e+002  2.500e+001  9.727e+000
 1.222e+002  2.500e+001  1.142e+001
 1.226e+002  2.500e+001  1.312e+001
 1.229e+002  2.500e+001  1.482e+001
 1.233e+002  2.500e+001  1.652e+001
 1.236e+002  2.500e+001  1.821e+001
 1.238e+002  2.500e+001  1.991e+001
 1.239e+002  2.500e+001  2.161e+001
 1.239e+002  2.500e+001  2.330e+001
 1.239e+002  2.500e+001  2.500e+001
 1.188e+002  0.000e+000  0.000e+000
 1.187e+002  3.547e+000  0.000e+000
 1.185e+002  7.094e+000  0.000e+000
 1.182e+002  1.064e+001  0.000e+000
 1.179e+002  1.419e+001  0.000e+000
 1.176e+002  1.773e+001  0.000e+000
 1.172e+002  2.127e+001  2.281e-002
 1.168e+002  2.437e+001  1.182e+000
 1.164e+002  2.500e+001  4.486e+000
 1.160e+002  2.500e+001  8.030e+000
 1.161e+002  2.500e+001  9.727e+000
 1.165e+002  2.500e+001  1.142e+001
 1.169e+002  2.500e+001  1.312e+001
 1.173e+002  2.500e+001  1.482e+001
 1.176e+002  2.500e+001  1.652e+001
 1.180e+002  2.500e+001  1.821e+001
 1.182e+002  2.500e+001  1.991e+001
 1.183e+002  2.500e+001  2.161e+001
 1.183e+002  2.500e+001  2.330e+001
 1.183e+002  2.500e+001  2.500e+001
 1.132e+002  0.000e+000  0.000e+000
 1.131e+002  3.537e+000  0.000e+000
 1.129e+002  7.074e+000  0.000e+000
 1.126e+002  1.061e+001  0.000e+000
 1.123e+002  1.414e+001  0.000e+000
 1.119e+002  1.767e+001  0.000e+000
 1.115e+002  2.120e+001  3.377e-002