TITLE = "NODEELEMENT"
VARIABLES = "X", "Y", "Z"
ZONE N=    1502, E=    1434, F=FEPOINT, ET=QUADRILATERAL
 5.500e+002  0.000e+000  8.030e+000
 5.500e+002  0.000e+000  2.474e+000
 5.500e+002  0.000e+000 -3.081e+000
 5.500e+002  0.000e+000 -8.637e+000
 5.500e+002  0.000e+000 -1.419e+001
 5.500e+002  0.000e+000 -1.975e+001
 5.500e+002  0.000e+000 -2.530e+001
 5.500e+002  0.000e+000 -3.086e+001
 5.500e+002  0.000e+000 -3.641e+001
 5.500e+002  0.000e+000 -4.197e+001
 5.500e+002  5.263e+000  8.030e+000
 5.500e+002  5.263e+000  2.474e+000
 5.500e+002  5.263e+000 -3.081e+000
 5.500e+002  5.263e+000 -8.637e+000
 5.500e+002  5.263e+000 -1.419e+001
 5.500e+002  5.263e+000 -1.975e+001
 5.500e+002  5.263e+000 -2.530e+001
 5.500e+002  5.263e+000 -3.086e+001
 5.500e+002  5.263e+000 -3.641e+001
 5.500e+002  5.263e+000 -4.197e+001
 5.500e+002  1.053e+001  8.030e+000
 5.500e+002  1.053e+001  2.474e+000
 5.500e+002  1.053e+001 -3.081e+000
 5.500e+002  1.053e+001 -8.637e+000
 5.500e+002  1.053e+001 -1.419e+001
 5.500e+002  1.053e+001 -1.975e+001
 5.500e+002  1.053e+001 -2.530e+001
 5.500e+002  1.053e+001 -3.086e+001
 5.500e+002  1.053e+001 -3.641e+001
 5.500e+002  1.053e+001 -4.197e+001
 5.500e+002  1.579e+001  8.030e+000
 5.500e+002  1.579e+001  2.474e+000
 5.500e+002  1.579e+001 -3.081e+000
 5.500e+002  1.579e+001 -8.637e+000
 5.500e+002  1.579e+001 -1.419e+001
 5.500e+002  1.579e+001 -1.975e+001
 5.500e+002  1.579e+001 -2.530e+001
 5.500e+002  1.579e+001 -3.086e+001
 5.500e+002  1.579e+001 -3.641e+001
 5.500e+002  1.579e+001 -4.197e+001
 5.500e+002  2.105e+001  8.030e+000
 5.500e+002  2.105e+001  2.474e+000
 5.500e+002  2.105e+001 -3.081e+000
 5.500e+002  2.105e+001 -8.637e+000
 5.500e+002  2.105e+001 -1.419e+001
 5.500e+002  2.105e+001 -1.975e+001
 5.500e+002  2.105e+001 -2.530e+001
 5.500e+002  2.105e+001 -3.086e+001
 5.500e+002  2.105e+001 -3.641e+001
 5.500e+002  2.105e+001 -4.197e+001
 5.500e+002  2.632e+001  8.030e+000
 5.500e+002  2.632e+001  2.474e+000
 5.500e+002  2.632e+001 -3.081e+000
 5.500e+002  2.632e+001 -8.637e+000
 5.500e+002  2.632e+001 -1.419e+001
 5.500e+002  2.632e+001 -1.975e+001
 5.500e+002  2.632e+001 -2.530e+001
 5.500e+002  2.632e+001 -3.086e+001
 5.500e+002  2.632e+001 -3.641e+001
 5.500e+002  2.632e+001 -4.197e+001
 5.500e+002  3.158e+001  8.030e+000
 5.500e+002  3.158e+001  2.474e+000
 5.500e+002  3.158e+001 -3.081e+000
 5.500e+002  3.158e+001 -8.637e+000
 5.500e+002  3.158e+001 -1.419e+001
 5.500e+002  3.158e+001 -1.975e+001
 5.500e+002  3.158e+001 -2.530e+001
 5.500e+002  3.158e+001 -3.086e+001
 5.500e+002  3.158e+001 -3.641e+001
 5.500e+002  3.158e+001 -4.197e+001
 5.500e+002  3.684e+001  8.030e+000
 5.500e+002  3.684e+001  2.474e+000
 5.500e+002  3.684e+001 -3.081e+000
 5.500e+002  3.684e+001 -8.637e+000
 5.500e+002  3.684e+001 -1.419e+001
 5.500e+002  3.684e+001 -1.975e+001
 5.500e+002  3.684e+001 -2.530e+001
 5.500e+002  3.684e+001 -3.086e+001
 5.500e+002  3.684e+001 -3.641e+001
 5.500e+002  3.684e+001 -4.197e+001
 5.500e+002  4.211e+001  8.030e+000
 5.500e+002  4.211e+001  2.474e+000
 5.500e+002  4.211e+001 -3.081e+000
 5.500e+002  4.211e+001 -8.637e+000
 5.500e+002  4.211e+001 -1.419e+001
 5.500e+002  4.211e+001 -1.975e+001
 5.500e+002  4.211e+001 -2.530e+001
 5.500e+002  4.211e+001 -3.086e+001
 5.500e+002  4.211e+001 -3.641e+001
 5.500e+002  4.211e+001 -4.197e+001
 5.500e+002  4.737e+001  8.030e+000
 5.500e+002  4.737e+001  2.474e+000
 5.500e+002  4.737e+001 -3.081e+000
 5.500e+002  4.737e+001 -8.637e+000
 5.500e+002  4.737e+001 -1.419e+001
 5.500e+002  4.737e+001 -1.975e+001
 5.500e+002  4.737e+001 -2.530e+001
 5.500e+002  4.737e+001 -3.086e+001
 5.500e+002  4.737e+001 -3.641e+001
 5.500e+002  4.737e+001 -4.197e+001
 5.500e+002  5.263e+001  8.030e+000
 5.500e+002  5.263e+001  2.474e+000
 5.500e+002  5.263e+001 -3.081e+000
 5.500e+002  5.263e+001 -8.637e+000
 5.500e+002  5.263e+001 -1.419e+001
 5.500e+002  5.263e+001 -1.975e+001
 5.500e+002  5.263e+001 -2.530e+001
 5.500e+002  5.263e+001 -3.086e+001
 5.500e+002  5.263e+001 -3.641e+001
 5.500e+002  5.263e+001 -4.197e+001
 5.500e+002  5.789e+001  8.030e+000
 5.500e+002  5.789e+001  2.474e+000
 5.500e+002  5.789e+001 -3.081e+000
 5.500e+002  5.789e+001 -8.637e+000
 5.500e+002  5.789e+001 -1.419e+001
 5.500e+002  5.789e+001 -1.975e+001
 5.500e+002  5.789e+001 -2.530e+001
 5.500e+002  5.789e+001 -3.086e+001
 5.500e+002  5.789e+001 -3.641e+001
 5.500e+002  5.789e+001 -4.197e+001
 5.500e+002  6.316e+001  8.030e+000
 5.500e+002  6.316e+001  2.474e+000
 5.500e+002  6.316e+001 -3.081e+000
 5.500e+002  6.316e+001 -8.637e+000
 5.500e+002  6.316e+001 -1.419e+001
 5.500e+002  6.316e+001 -1.975e+001
 5.500e+002  6.316e+001 -2.530e+001
 5.500e+002  6.316e+001 -3.086e+001
 5.500e+002  6.316e+001 -3.641e+001
 5.500e+002  6.316e+001 -4.197e+001
 5.500e+002  6.842e+001  8.030e+000
 5.500e+002  6.842e+001  2.474e+000
 5.500e+002  6.842e+001 -3.081e+000
 5.500e+002  6.842e+001 -8.637e+000
 5.500e+002  6.842e+001 -1.419e+001
 5.500e+002  6.842e+001 -1.975e+001
 5.500e+002  6.842e+001 -2.530e+001
 5.500e+002  6.842e+001 -3.086e+001
 5.500e+002  6.842e+001 -3.641e+001
 5.500e+002  6.842e+001 -4.197e+001
 5.500e+002  7.368e+001  8.030e+000
 5.500e+002  7.368e+001  2.474e+000
 5.500e+002  7.368e+001 -3.081e+000
 5.500e+002  7.368e+001 -8.637e+000
 5.500e+002  7.368e+001 -1.419e+001
 5.500e+002  7.368e+001 -1.975e+001
 5.500e+002  7.368e+001 -2.530e+001
 5.500e+002  7.368e+001 -3.086e+001
 5.500e+002  7.368e+001 -3.641e+001
 5.500e+002  7.368e+001 -4.197e+001
 5.500e+002  7.895e+001  8.030e+000
 5.500e+002  7.895e+001  2.474e+000
 5.500e+002  7.895e+001 -3.081e+000
 5.500e+002  7.895e+001 -8.637e+000
 5.500e+002  7.895e+001 -1.419e+001
 5.500e+002  7.895e+001 -1.975e+001
 5.500e+002  7.895e+001 -2.530e+001
 5.500e+002  7.895e+001 -3.086e+001
 5.500e+002  7.895e+001 -3.641e+001
 5.500e+002  7.895e+001 -4.197e+001
 5.500e+002  8.421e+001  8.030e+000
 5.500e+002  8.421e+001  2.474e+000
 5.500e+002  8.421e+001 -3.081e+000
 5.500e+002  8.421e+001 -8.637e+000
 5.500e+002  8.421e+001 -1.419e+001
 5.500e+002  8.421e+001 -1.975e+001
 5.500e+002  8.421e+001 -2.530e+001
 5.500e+002  8.421e+001 -3.086e+001
 5.500e+002  8.421e+001 -3.641e+001
 5.500e+002  8.421e+001 -4.197e+001
 5.500e+002  8.947e+001  8.030e+000
 5.500e+002  8.947e+001  2.474e+000
 5.500e+002  8.947e+001 -3.081e+000
 5.500e+002  8.947e+001 -8.637e+000
 5.500e+002  8.947e+001 -1.419e+001
 5.500e+002  8.947e+001 -1.975e+001
 5.500e+002  8.947e+001 -2.530e+001
 5.500e+002  8.947e+001 -3.086e+001
 5.500e+002  8.947e+001 -3.641e+001
 5.500e+002  8.947e+001 -4.197e+001
 5.500e+002  9.474e+001  8.030e+000
 5.500e+002  9.474e+001  2.474e+000
 5.500e+002  9.474e+001 -3.081e+000
 5.500e+002  9.474e+001 -8.637e+000
 5.500e+002  9.474e+001 -1.419e+001
 5.500e+002  9.474e+001 -1.975e+001
 5.500e+002  9.474e+001 -2.530e+001
 5.500e+002  9.474e+001 -3.086e+001
 5.500e+002  9.474e+001 -3.641e+001
 5.500e+002  9.474e+001 -4.197e+001
 5.500e+002  1.000e+002  8.030e+000
 5.500e+002  1.000e+002  2.474e+000
 5.500e+002  1.000e+002 -3.081e+000
 5.500e+002  1.000e+002 -8.637e+000
 5.500e+002  1.000e+002 -1.419e+001
 5.500e+002  1.000e+002 -1.975e+001
 5.500e+002  1.000e+002 -2.530e+001
 5.500e+002  1.000e+002 -3.086e+001
 5.500e+002  1.000e+002 -3.641e+001
 5.500e+002  1.000e+002 -4.197e+001
 5.295e+002  1.000e+002  8.030e+000
 5.295e+002  1.000e+002  2.474e+000
 5.295e+002  1.000e+002 -3.081e+000
 5.295e+002  1.000e+002 -8.637e+000
 5.295e+002  1.000e+002 -1.419e+001
 5.295e+002  1.000e+002 -1.975e+001
 5.295e+002  1.000e+002 -2.530e+001
 5.295e+002  1.000e+002 -3.086e+001
 5.295e+002  1.000e+002 -3.641e+001
 5.295e+002  1.000e+002 -4.197e+001
 5.090e+002  1.000e+002  8.030e+000
 5.090e+002  1.000e+002  2.474e+000
 5.090e+002  1.000e+002 -3.081e+000
 5.090e+002  1.000e+002 -8.637e+000
 5.090e+002  1.000e+002 -1.419e+001
 5.090e+002  1.000e+002 -1.975e+001
 5.090e+002  1.000e+002 -2.530e+001
 5.090e+002  1.000e+002 -3.086e+001
 5.090e+002  1.000e+002 -3.641e+001
 5.090e+002  1.000e+002 -4.197e+001
 4.885e+002  1.000e+002  8.030e+000
 4.885e+002  1.000e+002  2.474e+000
 4.885e+002  1.000e+002 -3.081e+000
 4.885e+002  1.000e+002 -8.637e+000
 4.885e+002  1.000e+002 -1.419e+001
 4.885e+002  1.000e+002 -1.975e+001
 4.885e+002  1.000e+002 -2.530e+001
 4.885e+002  1.000e+002 -3.086e+001
 4.885e+002  1.000e+002 -3.641e+001
 4.885e+002  1.000e+002 -4.197e+001
 4.679e+002  1.000e+002  8.030e+000
 4.679e+002  1.000e+002  2.474e+000
 4.679e+002  1.000e+002 -3.081e+000
 4.679e+002  1.000e+002 -8.637e+000
 4.679e+002  1.000e+002 -1.419e+001
 4.679e+002  1.000e+002 -1.975e+001
 4.679e+002  1.000e+002 -2.530e+001
 4.679e+002  1.000e+002 -3.086e+001
 4.679e+002  1.000e+002 -3.641e+001
 4.679e+002  1.000e+002 -4.197e+001
 4.474e+002  1.000e+002  8.030e+000
 4.474e+002  1.000e+002  2.474e+000
 4.474e+002  1.000e+002 -3.081e+000
 4.474e+002  1.000e+002 -8.637e+000
 4.474e+002  1.000e+002 -1.419e+001
 4.474e+002  1.000e+002 -1.975e+001
 4.474e+002  1.000e+002 -2.530e+001
 4.474e+002  1.000e+002 -3.086e+001
 4.474e+002  1.000e+002 -3.641e+001
 4.474e+002  1.000e+002 -4.197e+001
 4.269e+002  1.000e+002  8.030e+000
 4.269e+002  1.000e+002  2.474e+000
 4.269e+002  1.000e+002 -3.081e+000
 4.269e+002  1.000e+002 -8.637e+000
 4.269e+002  1.000e+002 -1.419e+001
 4.269e+002  1.000e+002 -1.975e+001
 4.269e+002  1.000e+002 -2.530e+001
 4.269e+002  1.000e+002 -3.086e+001
 4.269e+002  1.000e+002 -3.641e+001
 4.269e+002  1.000e+002 -4.197e+001
 4.064e+002  1.000e+002  8.030e+000
 4.064e+002  1.000e+002  2.474e+000
 4.064e+002  1.000e+002 -3.081e+000
 4.064e+002  1.000e+002 -8.637e+000
 4.064e+002  1.000e+002 -1.419e+001
 4.064e+002  1.000e+002 -1.975e+001
 4.064e+002  1.000e+002 -2.530e+001
 4.064e+002  1.000e+002 -3.086e+001
 4.064e+002  1.000e+002 -3.641e+001
 4.064e+002  1.000e+002 -4.197e+001
 3.859e+002  1.000e+002  8.030e+000
 3.859e+002  1.000e+002  2.474e+000
 3.859e+002  1.000e+002 -3.081e+000
 3.859e+002  1.000e+002 -8.637e+000
 3.859e+002  1.000e+002 -1.419e+001
 3.859e+002  1.000e+002 -1.975e+001
 3.859e+002  1.000e+002 -2.530e+001
 3.859e+002  1.000e+002 -3.086e+001
 3.859e+002  1.000e+002 -3.641e+001
 3.859e+002  1.000e+002 -4.197e+001
 3.654e+002  1.000e+002  8.030e+000
 3.654e+002  1.000e+002  2.474e+000
 3.654e+002  1.000e+002 -3.081e+000
 3.654e+002  1.000e+002 -8.637e+000
 3.654e+002  1.000e+002 -1.419e+001
 3.654e+002  1.000e+002 -1.975e+001
 3.654e+002  1.000e+002 -2.530e+001
 3.654e+002  1.000e+002 -3.086e+001
 3.654e+002  1.000e+002 -3.641e+001
 3.654e+002  1.000e+002 -4.197e+001
 3.449e+002  1.000e+002  8.030e+000
 3.449e+002  1.000e+002  2.474e+000
 3.449e+002  1.000e+002 -3.081e+000
 3.449e+002  1.000e+002 -8.637e+000
 3.449e+002  1.000e+002 -1.419e+001
 3.449e+002  1.000e+002 -1.975e+001
 3.449e+002  1.000e+002 -2.530e+001
 3.449e+002  1.000e+002 -3.086e+001
 3.449e+002  1.000e+002 -3.641e+001
 3.449e+002  1.000e+002 -4.197e+001
 3.244e+002  1.000e+002  8.030e+000
 3.244e+002  1.000e+002  2.474e+000
 3.244e+002  1.000e+002 -3.081e+000
 3.244e+002  1.000e+002 -8.637e+000
 3.244e+002  1.000e+002 -1.419e+001
 3.244e+002  1.000e+002 -1.975e+001
 3.244e+002  1.000e+002 -2.530e+001
 3.244e+002  1.000e+002 -3.086e+001
 3.244e+002  1.000e+002 -3.641e+001
 3.244e+002  1.000e+002 -4.197e+001
 3.038e+002  1.000e+002  8.030e+000
 3.038e+002  1.000e+002  2.474e+000
 3.038e+002  1.000e+002 -3.081e+000
 3.038e+002  1.000e+002 -8.637e+000
 3.038e+002  1.000e+002 -1.419e+001
 3.038e+002  1.000e+002 -1.975e+001
 3.038e+002  1.000e+002 -2.530e+001
 3.038e+002  1.000e+002 -3.086e+001
 3.038e+002  1.000e+002 -3.641e+001
 3.038e+002  1.000e+002 -4.197e+001
 2.833e+002  1.000e+002  8.030e+000
 2.833e+002  1.000e+002  2.474e+000
 2.833e+002  1.000e+002 -3.081e+000
 2.833e+002  1.000e+002 -8.637e+000
 2.833e+002  1.000e+002 -1.419e+001
 2.833e+002  1.000e+002 -1.975e+001
 2.833e+002  1.000e+002 -2.530e+001
 2.833e+002  1.000e+002 -3.086e+001
 2.833e+002  1.000e+002 -3.641e+001
 2.833e+002  1.000e+002 -4.197e+001
 2.628e+002  1.000e+002  8.030e+000
 2.628e+002  1.000e+002  2.474e+000
 2.628e+002  1.000e+002 -3.081e+000
 2.628e+002  1.000e+002 -8.637e+000
 2.628e+002  1.000e+002 -1.419e+001
 2.628e+002  1.000e+002 -1.975e+001
 2.628e+002  1.000e+002 -2.530e+001
 2.628e+002  1.000e+002 -3.086e+001
 2.628e+002  1.000e+002 -3.641e+001
 2.628e+002  1.000e+002 -4.197e+001
 2.423e+002  1.000e+002  8.030e+000
 2.423e+002  1.000e+002  2.474e+000
 2.423e+002  1.000e+002 -3.081e+000
 2.423e+002  1.000e+002 -8.637e+000
 2.423e+002  1.000e+002 -1.419e+001
 2.423e+002  1.000e+002 -1.975e+001
 2.423e+002  1.000e+002 -2.530e+001
 2.423e+002  1.000e+002 -3.086e+001
 2.423e+002  1.000e+002 -3.641e+001
 2.423e+002  1.000e+002 -4.197e+001
 2.218e+002  1.000e+002  8.030e+000
 2.218e+002  1.000e+002  2.474e+000
 2.218e+002  1.000e+002 -3.081e+000
 2.218e+002  1.000e+002 -8.637e+000
 2.218e+002  1.000e+002 -1.419e+001
 2.218e+002  1.000e+002 -1.975e+001
 2.218e+002  1.000e+002 -2.530e+001
 2.218e+002  1.000e+002 -3.086e+001
 2.218e+002  1.000e+002 -3.641e+001
 2.218e+002  1.000e+002 -4.197e+001
 2.013e+002  1.000e+002  8.030e+000
 2.013e+002  1.000e+002  2.474e+000
 2.013e+002  1.000e+002 -3.081e+000
 2.013e+002  1.000e+002 -8.637e+000
 2.013e+002  1.000e+002 -1.419e+001
 2.013e+002  1.000e+002 -1.975e+001
 2.013e+002  1.000e+002 -2.530e+001
 2.013e+002  1.000e+002 -3.086e+001
 2.013e+002  1.000e+002 -3.641e+001
 2.013e+002  1.000e+002 -4.197e+001
 1.808e+002  1.000e+002  8.030e+000
 1.808e+002  1.000e+002  2.474e+000
 1.808e+002  1.000e+002 -3.081e+000
 1.808e+002  1.000e+002 -8.637e+000
 1.808e+002  1.000e+002 -1.419e+001
 1.808e+002  1.000e+002 -1.975e+001
 1.808e+002  1.000e+002 -2.530e+001
 1.808e+002  1.000e+002 -3.086e+001
 1.808e+002  1.000e+002 -3.641e+001
 1.808e+002  1.000e+002 -4.197e+001
 1.603e+002  1.000e+002  8.030e+000
 1.603e+002  1.000e+002  2.474e+000
 1.603e+002  1.000e+002 -3.081e+000
 1.603e+002  1.000e+002 -8.637e+000
 1.603e+002  1.000e+002 -1.419e+001
 1.603e+002  1.000e+002 -1.975e+001
 1.603e+002  1.000e+002 -2.530e+001
 1.603e+002  1.000e+002 -3.086e+001
 1.603e+002  1.000e+002 -3.641e+001
 1.603e+002  1.000e+002 -4.197e+001
 1.397e+002  1.000e+002  8.030e+000
 1.397e+002  1.000e+002  2.474e+000
 1.397e+002  1.000e+002 -3.081e+000
 1.397e+002  1.000e+002 -8.637e+000
 1.397e+002  1.000e+002 -1.419e+001
 1.397e+002  1.000e+002 -1.975e+001
 1.397e+002  1.000e+002 -2.530e+001
 1.397e+002  1.000e+002 -3.086e+001
 1.397e+002  1.000e+002 -3.641e+001
 1.397e+002  1.000e+002 -4.197e+001
 1.192e+002  1.000e+002  8.030e+000
 1.192e+002  1.000e+002  2.474e+000
 1.192e+002  1.000e+002 -3.081e+000
 1.192e+002  1.000e+002 -8.637e+000
 1.192e+002  1.000e+002 -1.419e+001
 1.192e+002  1.000e+002 -1.975e+001
 1.192e+002  1.000e+002 -2.530e+001
 1.192e+002  1.000e+002 -3.086e+001
 1.192e+002  1.000e+002 -3.641e+001
 1.192e+002  1.000e+002 -4.197e+001
 9.872e+001  1.000e+002  8.030e+000
 9.872e+001  1.000e+002  2.474e+000
 9.872e+001  1.000e+002 -3.081e+000
 9.872e+001  1.000e+002 -8.637e+000
 9.872e+001  1.000e+002 -1.419e+001
 9.872e+001  1.000e+002 -1.975e+001
 9.872e+001  1.000e+002 -2.530e+001
 9.872e+001  1.000e+002 -3.086e+001
 9.872e+001  1.000e+002 -3.641e+001
 9.872e+001  1.000e+002 -4.197e+001
 7.821e+001  1.000e+002  8.030e+000
 7.821e+001  1.000e+002  2.474e+000
 7.821e+001  1.000e+002 -3.081e+000
 7.821e+001  1.000e+002 -8.637e+000
 7.821e+001  1.000e+002 -1.419e+001
 7.821e+001  1.000e+002 -1.975e+001
 7.821e+001  1.000e+002 -2.530e+001
 7.821e+001  1.000e+002 -3.086e+001
 7.821e+001  1.000e+002 -3.641e+001
 7.821e+001  1.000e+002 -4.197e+001
 5.769e+001  1.000e+002  8.030e+000
 5.769e+001  1.000e+002  2.474e+000
 5.769e+001  1.000e+002 -3.081e+000
 5.769e+001  1.000e+002 -8.637e+000
 5.769e+001  1.000e+002 -1.419e+001
 5.769e+001  1.000e+002 -1.975e+001
 5.769e+001  1.000e+002 -2.530e+001
 5.769e+001  1.000e+002 -3.086e+001
 5.769e+001  1.000e+002 -3.641e+001
 5.769e+001  1.000e+002 -4.197e+001
 3.718e+001  1.000e+002  8.030e+000
 3.718e+001  1.000e+002  2.474e+000
 3.718e+001  1.000e+002 -3.081e+000
 3.718e+001  1.000e+002 -8.637e+000
 3.718e+001  1.000e+002 -1.419e+001
 3.718e+001  1.000e+002 -1.975e+001
 3.718e+001  1.000e+002 -2.530e+001
 3.718e+001  1.000e+002 -3.086e+001
 3.718e+001  1.000e+002 -3.641e+001
 3.718e+001  1.000e+002 -4.197e+001
 1.667e+001  1.000e+002  8.030e+000
 1.667e+001  1.000e+002  2.474e+000
 1.667e+001  1.000e+002 -3.081e+000
 1.667e+001  1.000e+002 -8.637e+000
 1.667e+001  1.000e+002 -1.419e+001
 1.667e+001  1.000e+002 -1.975e+001
 1.667e+001  1.000e+002 -2.530e+001
 1.667e+001  1.000e+002 -3.086e+001
 1.667e+001  1.000e+002 -3.641e+001
 1.667e+001  1.000e+002 -4.197e+001
-3.846e+000  1.000e+002  8.030e+000
-3.846e+000  1.000e+002  2.474e+000
-3.846e+000  1.000e+002 -3.081e+000
-3.846e+000  1.000e+002 -8.637e+000
-3.846e+000  1.000e+002 -1.419e+001
-3.846e+000  1.000e+002 -1.975e+001
-3.846e+000  1.000e+002 -2.530e+001
-3.846e+000  1.000e+002 -3.086e+001
-3.846e+000  1.000e+002 -3.641e+001
-3.846e+000  1.000e+002 -4.197e+001
-2.436e+001  1.000e+002  8.030e+000
-2.436e+001  1.000e+002  2.474e+000
-2.436e+001  1.000e+002 -3.081e+000
-2.436e+001  1.000e+002 -8.637e+000
-2.436e+001  1.000e+002 -1.419e+001
-2.436e+001  1.000e+002 -1.975e+001
-2.436e+001  1.000e+002 -2.530e+001
-2.436e+001  1.000e+002 -3.086e+001
-2.436e+001  1.000e+002 -3.641e+001
-2.436e+001  1.000e+002 -4.197e+001
-4.487e+001  1.000e+002  8.030e+000
-4.487e+001  1.000e+002  2.474e+000
-4.487e+001  1.000e+002 -3.081e+000
-4.487e+001  1.000e+002 -8.637e+000
-4.487e+001  1.000e+002 -1.419e+001
-4.487e+001  1.000e+002 -1.975e+001
-4.487e+001  1.000e+002 -2.530e+001
-4.487e+001  1.000e+002 -3.086e+001
-4.487e+001  1.000e+002 -3.641e+001
-4.487e+001  1.000e+002 -4.197e+001
-6.538e+001  1.000e+002  8.030e+000
-6.538e+001  1.000e+002  2.474e+000
-6.538e+001  1.000e+002 -3.081e+000
-6.538e+001  1.000e+002 -8.637e+000
-6.538e+001  1.000e+002 -1.419e+001
-6.538e+001  1.000e+002 -1.975e+001
-6.538e+001  1.000e+002 -2.530e+001
-6.538e+001  1.000e+002 -3.086e+001
-6.538e+001  1.000e+002 -3.641e+001
-6.538e+001  1.000e+002 -4.197e+001
-8.590e+001  1.000e+002  8.030e+000
-8.590e+001  1.000e+002  2.474e+000
-8.590e+001  1.000e+002 -3.081e+000
-8.590e+001  1.000e+002 -8.637e+000
-8.590e+001  1.000e+002 -1.419e+001
-8.590e+001  1.000e+002 -1.975e+001
-8.590e+001  1.000e+002 -2.530e+001
-8.590e+001  1.000e+002 -3.086e+001
-8.590e+001  1.000e+002 -3.641e+001
-8.590e+001  1.000e+002 -4.197e+001
-1.064e+002  1.000e+002  8.030e+000
-1.064e+002  1.000e+002  2.474e+000
-1.064e+002  1.000e+002 -3.081e+000
-1.064e+002  1.000e+002 -8.637e+000
-1.064e+002  1.000e+002 -1.419e+001
-1.064e+002  1.000e+002 -1.975e+001
-1.064e+002  1.000e+002 -2.530e+001
-1.064e+002  1.000e+002 -3.086e+001
-1.064e+002  1.000e+002 -3.641e+001
-1.064e+002  1.000e+002 -4.197e+001
-1.269e+002  1.000e+002  8.030e+000
-1.269e+002  1.000e+002  2.474e+000
-1.269e+002  1.000e+002 -3.081e+000
-1.269e+002  1.000e+002 -8.637e+000
-1.269e+002  1.000e+002 -1.419e+001
-1.269e+002  1.000e+002 -1.975e+001
-1.269e+002  1.000e+002 -2.530e+001
-1.269e+002  1.000e+002 -3.086e+001
-1.269e+002  1.000e+002 -3.641e+001
-1.269e+002  1.000e+002 -4.197e+001
-1.474e+002  1.000e+002  8.030e+000
-1.474e+002  1.000e+002  2.474e+000
-1.474e+002  1.000e+002 -3.081e+000
-1.474e+002  1.000e+002 -8.637e+000
-1.474e+002  1.000e+002 -1.419e+001
-1.474e+002  1.000e+002 -1.975e+001
-1.474e+002  1.000e+002 -2.530e+001
-1.474e+002  1.000e+002 -3.086e+001
-1.474e+002  1.000e+002 -3.641e+001
-1.474e+002  1.000e+002 -4.197e+001
-1.679e+002  1.000e+002  8.030e+000
-1.679e+002  1.000e+002  2.474e+000
-1.679e+002  1.000e+002 -3.081e+000
-1.679e+002  1.000e+002 -8.637e+000
-1.679e+002  1.000e+002 -1.419e+001
-1.679e+002  1.000e+002 -1.975e+001
-1.679e+002  1.000e+002 -2.530e+001
-1.679e+002  1.000e+002 -3.086e+001
-1.679e+002  1.000e+002 -3.641e+001
-1.679e+002  1.000e+002 -4.197e+001
-1.885e+002  1.000e+002  8.030e+000
-1.885e+002  1.000e+002  2.474e+000
-1.885e+002  1.000e+002 -3.081e+000
-1.885e+002  1.000e+002 -8.637e+000
-1.885e+002  1.000e+002 -1.419e+001
-1.885e+002  1.000e+002 -1.975e+001
-1.885e+002  1.000e+002 -2.530e+001
-1.885e+002  1.000e+002 -3.086e+001
-1.885e+002  1.000e+002 -3.641e+001
-1.885e+002  1.000e+002 -4.197e+001
-2.090e+002  1.000e+002  8.030e+000
-2.090e+002  1.000e+002  2.474e+000
-2.090e+002  1.000e+002 -3.081e+000
-2.090e+002  1.000e+002 -8.637e+000
-2.090e+002  1.000e+002 -1.419e+001
-2.090e+002  1.000e+002 -1.975e+001
-2.090e+002  1.000e+002 -2.530e+001
-2.090e+002  1.000e+002 -3.086e+001
-2.090e+002  1.000e+002 -3.641e+001
-2.090e+002  1.000e+002 -4.197e+001
-2.295e+002  1.000e+002  8.030e+000
-2.295e+002  1.000e+002  2.474e+000
-2.295e+002  1.000e+002 -3.081e+000
-2.295e+002  1.000e+002 -8.637e+000
-2.295e+002  1.000e+002 -1.419e+001
-2.295e+002  1.000e+002 -1.975e+001
-2.295e+002  1.000e+002 -2.530e+001
-2.295e+002  1.000e+002 -3.086e+001
-2.295e+002  1.000e+002 -3.641e+001
-2.295e+002  1.000e+002 -4.197e+001
-2.500e+002  1.000e+002  8.030e+000
-2.500e+002  1.000e+002  2.474e+000
-2.500e+002  1.000e+002 -3.081e+000
-2.500e+002  1.000e+002 -8.637e+000
-2.500e+002  1.000e+002 -1.419e+001
-2.500e+002  1.000e+002 -1.975e+001
-2.500e+002  1.000e+002 -2.530e+001
-2.500e+002  1.000e+002 -3.086e+001
-2.500e+002  1.000e+002 -3.641e+001
-2.500e+002  1.000e+002 -4.197e+001
-2.500e+002  9.474e+001  8.030e+000
-2.500e+002  9.474e+001  2.474e+000
-2.500e+002  9.474e+001 -3.081e+000
-2.500e+002  9.474e+001 -8.637e+000
-2.500e+002  9.474e+001 -1.419e+001
-2.500e+002  9.474e+001 -1.975e+001
-2.500e+002  9.474e+001 -2.530e+001
-2.500e+002  9.474e+001 -3.086e+001
-2.500e+002  9.474e+001 -3.641e+001
-2.500e+002  9.474e+001 -4.197e+001
-2.500e+002  8.947e+001  8.030e+000
-2.500e+002  8.947e+001  2.474e+000
-2.500e+002  8.947e+001 -3.081e+000
-2.500e+002  8.947e+001 -8.637e+000
-2.500e+002  8.947e+001 -1.419e+001
-2.500e+002  8.947e+001 -1.975e+001
-2.500e+002  8.947e+001 -2.530e+001
-2.500e+002  8.947e+001 -3.086e+001
-2.500e+002  8.947e+001 -3.641e+001
-2.500e+002  8.947e+001 -4.197e+001
-2.500e+002  8.421e+001  8.030e+000
-2.500e+002  8.421e+001  2.474e+000
-2.500e+002  8.421e+001 -3.081e+000
-2.500e+002  8.421e+001 -8.637e+000
-2.500e+002  8.421e+001 -1.419e+001
-2.500e+002  8.421e+001 -1.975e+001
-2.500e+002  8.421e+001 -2.530e+001
-2.500e+002  8.421e+001 -3.086e+001
-2.500e+002  8.421e+001 -3.641e+001
-2.500e+002  8.421e+001 -4.197e+001
-2.500e+002  7.895e+001  8.030e+000
-2.500e+002  7.895e+001  2.474e+000
-2.500e+002  7.895e+001 -3.081e+000
-2.500e+002  7.895e+001 -8.637e+000
-2.500e+002  7.895e+001 -1.419e+001
-2.500e+002  7.895e+001 -1.975e+001
-2.500e+002  7.895e+001 -2.530e+001
-2.500e+002  7.895e+001 -3.086e+001
-2.500e+002  7.895e+001 -3.641e+001
-2.500e+002  7.895e+001 -4.197e+001
-2.500e+002  7.368e+001  8.030e+000
-2.500e+002  7.368e+001  2.474e+000
-2.500e+002  7.368e+001 -3.081e+000
-2.500e+002  7.368e+001 -8.637e+000
-2.500e+002  7.368e+001 -1.419e+001
-2.500e+002  7.368e+001 -1.975e+001
-2.500e+002  7.368e+001 -2.530e+001
-2.500e+002  7.368e+001 -3.086e+001
-2.500e+002  7.368e+001 -3.641e+001
-2.500e+002  7.368e+001 -4.197e+001
-2.500e+002  6.842e+001  8.030e+000
-2.500e+002  6.842e+001  2.474e+000
-2.500e+002  6.842e+001 -3.081e+000
-2.500e+002  6.842e+001 -8.637e+000
-2.500e+002  6.842e+001 -1.419e+001
-2.500e+002  6.842e+001 -1.975e+001
-2.500e+002  6.842e+001 -2.530e+001
-2.500e+002  6.842e+001 -3.086e+001
-2.500e+002  6.842e+001 -3.641e+001
-2.500e+002  6.842e+001 -4.197e+001
-2.500e+002  6.316e+001  8.030e+000
-2.500e+002  6.316e+001  2.474e+000
-2.500e+002  6.316e+001 -3.081e+000
-2.500e+002  6.316e+001 -8.637e+000
-2.500e+002  6.316e+001 -1.419e+001
-2.500e+002  6.316e+001 -1.975e+001
-2.500e+002  6.316e+001 -2.530e+001
-2.500e+002  6.316e+001 -3.086e+001
-2.500e+002  6.316e+001 -3.641e+001
-2.500e+002  6.316e+001 -4.197e+001
-2.500e+002  5.789e+001  8.030e+000
-2.500e+002  5.789e+001  2.474e+000
-2.500e+002  5.789e+001 -3.081e+000
-2.500e+002  5.789e+001 -8.637e+000
-2.500e+002  5.789e+001 -1.419e+001
-2.500e+002  5.789e+001 -1.975e+001
-2.500e+002  5.789e+001 -2.530e+001
-2.500e+002  5.789e+001 -3.086e+001
-2.500e+002  5.789e+001 -3.641e+001
-2.500e+002  5.789e+001 -4.197e+001
-2.500e+002  5.263e+001  8.030e+000
-2.500e+002  5.263e+001  2.474e+000
-2.500e+002  5.263e+001 -3.081e+000
-2.500e+002  5.263e+001 -8.637e+000
-2.500e+002  5.263e+001 -1.419e+001
-2.500e+002  5.263e+001 -1.975e+001
-2.500e+002  5.263e+001 -2.530e+001
-2.500e+002  5.263e+001 -3.086e+001
-2.500e+002  5.263e+001 -3.641e+001
-2.500e+002  5.263e+001 -4.197e+001
-2.500e+002  4.737e+001  8.030e+000
-2.500e+002  4.737e+001  2.474e+000
-2.500e+002  4.737e+001 -3.081e+000
-2.500e+002  4.737e+001 -8.637e+000
-2.500e+002  4.737e+001 -1.419e+001
-2.500e+002  4.737e+001 -1.975e+001
-2.500e+002  4.737e+001 -2.530e+001
-2.500e+002  4.737e+001 -3.086e+001
-2.500e+002  4.737e+001 -3.641e+001
-2.500e+002  4.737e+001 -4.197e+001
-2.500e+002  4.211e+001  8.030e+000
-2.500e+002  4.211e+001  2.474e+000
-2.500e+002  4.211e+001 -3.081e+000
-2.500e+002  4.211e+001 -8.637e+000
-2.500e+002  4.211e+001 -1.419e+001
-2.500e+002  4.211e+001 -1.975e+001
-2.500e+002  4.211e+001 -2.530e+001
-2.500e+002  4.211e+001 -3.086e+001
-2.500e+002  4.211e+001 -3.641e+001
-2.500e+002  4.211e+001 -4.197e+001
-2.500e+002  3.684e+001  8.030e+000
-2.500e+002  3.684e+001  2.474e+000
-2.500e+002  3.684e+001 -3.081e+000
-2.500e+002  3.684e+001 -8.637e+000
-2.500e+002  3.684e+001 -1.419e+001
-2.500e+002  3.684e+001 -1.975e+001
-2.500e+002  3.684e+001 -2.530e+001
-2.500e+002  3.684e+001 -3.086e+001
-2.500e+002  3.684e+001 -3.641e+001
-2.500e+002  3.684e+001 -4.197e+001
-2.500e+002  3.158e+001  8.030e+000
-2.500e+002  3.158e+001  2.474e+000
-2.500e+002  3.158e+001 -3.081e+000
-2.500e+002  3.158e+001 -8.637e+000
-2.500e+002  3.158e+001 -1.419e+001
-2.500e+002  3.158e+001 -1.975e+001
-2.500e+002  3.158e+001 -2.530e+001
-2.500e+002  3.158e+001 -3.086e+001
-2.500e+002  3.158e+001 -3.641e+001
-2.500e+002  3.158e+001 -4.197e+001
-2.500e+002  2.632e+001  8.030e+000
-2.500e+002  2.632e+001  2.474e+000
-2.500e+002  2.632e+001 -3.081e+000
-2.500e+002  2.632e+001 -8.637e+000
-2.500e+002  2.632e+001 -1.419e+001
-2.500e+002  2.632e+001 -1.975e+001
-2.500e+002  2.632e+001 -2.530e+001
-2.500e+002  2.632e+001 -3.086e+001
-2.500e+002  2.632e+001 -3.641e+001
-2.500e+002  2.632e+001 -4.197e+001
-2.500e+002  2.105e+001  8.030e+000
-2.500e+002  2.105e+001  2.474e+000
-2.500e+002  2.105e+001 -3.081e+000
-2.500e+002  2.105e+001 -8.637e+000
-2.500e+002  2.105e+001 -1.419e+001
-2.500e+002  2.105e+001 -1.975e+001
-2.500e+002  2.105e+001 -2.530e+001
-2.500e+002  2.105e+001 -3.086e+001
-2.500e+002  2.105e+001 -3.641e+001
-2.500e+002  2.105e+001 -4.197e+001
-2.500e+002  1.579e+001  8.030e+000
-2.500e+002  1.579e+001  2.474e+000
-2.500e+002  1.579e+001 -3.081e+000
-2.500e+002  1.579e+001 -8.637e+000
-2.500e+002  1.579e+001 -1.419e+001
-2.500e+002  1.579e+001 -1.975e+001
-2.500e+002  1.579e+001 -2.530e+001
-2.500e+002  1.579e+001 -3.086e+001
-2.500e+002  1.579e+001 -3.641e+001
-2.500e+002  1.579e+001 -4.197e+001
-2.500e+002  1.053e+001  8.030e+000
-2.500e+002  1.053e+001  2.474e+000
-2.500e+002  1.053e+001 -3.081e+000
-2.500e+002  1.053e+001 -8.637e+000
-2.500e+002  1.053e+001 -1.419e+001
-2.500e+002  1.053e+001 -1.975e+001
-2.500e+002  1.053e+001 -2.530e+001
-2.500e+002  1.053e+001 -3.086e+001
-2.500e+002  1.053e+001 -3.641e+001
-2.500e+002  1.053e+001 -4.197e+001
-2.500e+002  5.263e+000  8.030e+000
-2.500e+002  5.263e+000  2.474e+000
-2.500e+002  5.263e+000 -3.081e+000
-2.500e+002  5.263e+000 -8.637e+000
-2.500e+002  5.263e+000 -1.419e+001
-2.500e+002  5.263e+000 -1.975e+001
-2.500e+002  5.263e+000 -2.530e+001
-2.500e+002  5.263e+000 -3.086e+001
-2.500e+002  5.263e+000 -3.641e+001
-2.500e+002  5.263e+000 -4.197e+001
-2.500e+002  0.000e+000  8.030e+000
-2.500e+002  0.000e+000  2.474e+000
-2.500e+002  0.000e+000 -3.081e+000
-2.500e+002  0.000e+000 -8.637e+000
-2.500e+002  0.000e+000 -1.419e+001
-2.500e+002  0.000e+000 -1.975e+001
-2.500e+002  0.000e+000 -2.530e+001
-2.500e+002  0.000e+000 -3.086e+001
-2.500e+002  0.000e+000 -3.641e+001
-2.500e+002  0.000e+000 -4.197e+001
 5.295e+002  9.474e+001 -4.197e+001
 5.295e+002  8.947e+001 -4.197e+001
 5.295e+002  8.421e+001 -4.197e+001
 5.295e+002  7.895e+001 -4.197e+001
 5.295e+002  7.368e+001 -4.197e+001
 5.295e+002  6.842e+001 -4.197e+001
 5.295e+002  6.316e+001 -4.197e+001
 5.295e+002  5.789e+001 -4.197e+001
 5.295e+002  5.263e+001 -4.197e+001
 5.295e+002  4.737e+001 -4.197e+001
 5.295e+002  4.211e+001 -4.197e+001
 5.295e+002  3.684e+001 -4.197e+001
 5.295e+002  3.158e+001 -4.197e+001
 5.295e+002  2.632e+001 -4.197e+001
 5.295e+002  2.105e+001 -4.197e+001
 5.295e+002  1.579e+001 -4.197e+001
 5.295e+002  1.053e+001 -4.197e+001
 5.295e+002  5.263e+000 -4.197e+001
 5.295e+002  0.000e+000 -4.197e+001
 5.090e+002  9.474e+001 -4.197e+001
 5.090e+002  8.947e+001 -4.197e+001
 5.090e+002  8.421e+001 -4.197e+001
 5.090e+002  7.895e+001 -4.197e+001
 5.090e+002  7.368e+001 -4.197e+001
 5.090e+002  6.842e+001 -4.197e+001
 5.090e+002  6.316e+001 -4.197e+001
 5.090e+002  5.789e+001 -4.197e+001
 5.090e+002  5.263e+001 -4.197e+001
 5.090e+002  4.737e+001 -4.197e+001
 5.090e+002  4.211e+001 -4.197e+001
 5.090e+002  3.684e+001 -4.197e+001
 5.090e+002  3.158e+001 -4.197e+001
 5.090e+002  2.632e+001 -4.197e+001
 5.090e+002  2.105e+001 -4.197e+001
 5.090e+002  1.579e+001 -4.197e+001
 5.090e+002  1.053e+001 -4.197e+001
 5.090e+002  5.263e+000 -4.197e+001
 5.090e+002  0.000e+000 -4.197e+001
 4.885e+002  9.474e+001 -4.197e+001
 4.885e+002  8.947e+001 -4.197e+001
 4.885e+002  8.421e+001 -4.197e+001
 4.885e+002  7.895e+001 -4.197e+001
 4.885e+002  7.368e+001 -4.197e+001
 4.885e+002  6.842e+001 -4.197e+001
 4.885e+002  6.316e+001 -4.197e+001
 4.885e+002  5.789e+001 -4.197e+001
 4.885e+002  5.263e+001 -4.197e+001
 4.885e+002  4.737e+001 -4.197e+001
 4.885e+002  4.211e+001 -4.197e+001
 4.885e+002  3.684e+001 -4.197e+001