TITLE = "NODEELEMENT"
VARIABLES = "X", "Y", "Z"
ZONE N=    1160, E=    1083, F=FEPOINT, ET=QUADRILATERAL
 5.500e+002  1.000e+002  8.030e+000
 5.366e+002  1.000e+002  8.030e+000
 5.232e+002  1.000e+002  8.030e+000
 5.098e+002  1.000e+002  8.030e+000
 4.964e+002  1.000e+002  8.030e+000
 4.830e+002  1.000e+002  8.030e+000
 4.696e+002  1.000e+002  8.030e+000
 4.562e+002  1.000e+002  8.030e+000
 4.428e+002  1.000e+002  8.030e+000
 4.294e+002  1.000e+002  8.030e+000
 4.160e+002  1.000e+002  8.030e+000
 4.026e+002  1.000e+002  8.030e+000
 3.892e+002  1.000e+002  8.030e+000
 3.758e+002  1.000e+002  8.030e+000
 3.624e+002  1.000e+002  8.030e+000
 3.490e+002  1.000e+002  8.030e+000
 3.356e+002  1.000e+002  8.030e+000
 3.222e+002  1.000e+002  8.030e+000
 3.088e+002  1.000e+002  8.030e+000
 2.954e+002  1.000e+002  8.030e+000
 5.500e+002  9.474e+001  8.030e+000
 5.366e+002  9.474e+001  8.030e+000
 5.232e+002  9.474e+001  8.030e+000
 5.098e+002  9.474e+001  8.030e+000
 4.964e+002  9.474e+001  8.030e+000
 4.830e+002  9.474e+001  8.030e+000
 4.696e+002  9.474e+001  8.030e+000
 4.562e+002  9.474e+001  8.030e+000
 4.428e+002  9.474e+001  8.030e+000
 4.294e+002  9.474e+001  8.030e+000
 4.160e+002  9.474e+001  8.030e+000
 4.026e+002  9.474e+001  8.030e+000
 3.892e+002  9.474e+001  8.030e+000
 3.758e+002  9.474e+001  8.030e+000
 3.624e+002  9.474e+001  8.030e+000
 3.490e+002  9.474e+001  8.030e+000
 3.356e+002  9.474e+001  8.030e+000
 3.222e+002  9.474e+001  8.030e+000
 3.088e+002  9.474e+001  8.030e+000
 2.954e+002  9.474e+001  8.030e+000
 5.500e+002  8.947e+001  8.030e+000
 5.366e+002  8.947e+001  8.030e+000
 5.232e+002  8.947e+001  8.030e+000
 5.098e+002  8.947e+001  8.030e+000
 4.964e+002  8.947e+001  8.030e+000
 4.830e+002  8.947e+001  8.030e+000
 4.696e+002  8.947e+001  8.030e+000
 4.562e+002  8.947e+001  8.030e+000
 4.428e+002  8.947e+001  8.030e+000
 4.294e+002  8.947e+001  8.030e+000
 4.160e+002  8.947e+001  8.030e+000
 4.026e+002  8.947e+001  8.030e+000
 3.892e+002  8.947e+001  8.030e+000
 3.758e+002  8.947e+001  8.030e+000
 3.624e+002  8.947e+001  8.030e+000
 3.490e+002  8.947e+001  8.030e+000
 3.356e+002  8.947e+001  8.030e+000
 3.222e+002  8.947e+001  8.030e+000
 3.088e+002  8.947e+001  8.030e+000
 2.954e+002  8.947e+001  8.030e+000
 5.500e+002  8.421e+001  8.030e+000
 5.366e+002  8.421e+001  8.030e+000
 5.232e+002  8.421e+001  8.030e+000
 5.098e+002  8.421e+001  8.030e+000
 4.964e+002  8.421e+001  8.030e+000
 4.830e+002  8.421e+001  8.030e+000
 4.696e+002  8.421e+001  8.030e+000
 4.562e+002  8.421e+001  8.030e+000
 4.428e+002  8.421e+001  8.030e+000
 4.294e+002  8.421e+001  8.030e+000
 4.160e+002  8.421e+001  8.030e+000
 4.026e+002  8.421e+001  8.030e+000
 3.892e+002  8.421e+001  8.030e+000
 3.758e+002  8.421e+001  8.030e+000
 3.624e+002  8.421e+001  8.030e+000
 3.490e+002  8.421e+001  8.030e+000
 3.356e+002  8.421e+001  8.030e+000
 3.222e+002  8.421e+001  8.030e+000
 3.088e+002  8.421e+001  8.030e+000
 2.954e+002  8.421e+001  8.030e+000
 5.500e+002  7.895e+001  8.030e+000
 5.366e+002  7.895e+001  8.030e+000
 5.232e+002  7.895e+001  8.030e+000
 5.098e+002  7.895e+001  8.030e+000
 4.964e+002  7.895e+001  8.030e+000
 4.830e+002  7.895e+001  8.030e+000
 4.696e+002  7.895e+001  8.030e+000
 4.562e+002  7.895e+001  8.030e+000
 4.428e+002  7.895e+001  8.030e+000
 4.294e+002  7.895e+001  8.030e+000
 4.160e+002  7.895e+001  8.030e+000
 4.026e+002  7.895e+001  8.030e+000
 3.892e+002  7.895e+001  8.030e+000
 3.758e+002  7.895e+001  8.030e+000
 3.624e+002  7.895e+001  8.030e+000
 3.490e+002  7.895e+001  8.030e+000
 3.356e+002  7.895e+001  8.030e+000
 3.222e+002  7.895e+001  8.030e+000
 3.088e+002  7.895e+001  8.030e+000
 2.954e+002  7.895e+001  8.030e+000
 5.500e+002  7.368e+001  8.030e+000
 5.366e+002  7.368e+001  8.030e+000
 5.232e+002  7.368e+001  8.030e+000
 5.098e+002  7.368e+001  8.030e+000
 4.964e+002  7.368e+001  8.030e+000
 4.830e+002  7.368e+001  8.030e+000
 4.696e+002  7.368e+001  8.030e+000
 4.562e+002  7.368e+001  8.030e+000
 4.428e+002  7.368e+001  8.030e+000
 4.294e+002  7.368e+001  8.030e+000
 4.160e+002  7.368e+001  8.030e+000
 4.026e+002  7.368e+001  8.030e+000
 3.892e+002  7.368e+001  8.030e+000
 3.758e+002  7.368e+001  8.030e+000
 3.624e+002  7.368e+001  8.030e+000
 3.490e+002  7.368e+001  8.030e+000
 3.356e+002  7.368e+001  8.030e+000
 3.222e+002  7.368e+001  8.030e+000
 3.088e+002  7.368e+001  8.030e+000
 2.954e+002  7.368e+001  8.030e+000
 5.500e+002  6.842e+001  8.030e+000
 5.366e+002  6.842e+001  8.030e+000
 5.232e+002  6.842e+001  8.030e+000
 5.098e+002  6.842e+001  8.030e+000
 4.964e+002  6.842e+001  8.030e+000
 4.830e+002  6.842e+001  8.030e+000
 4.696e+002  6.842e+001  8.030e+000
 4.562e+002  6.842e+001  8.030e+000
 4.428e+002  6.842e+001  8.030e+000
 4.294e+002  6.842e+001  8.030e+000
 4.160e+002  6.842e+001  8.030e+000
 4.026e+002  6.842e+001  8.030e+000
 3.892e+002  6.842e+001  8.030e+000
 3.758e+002  6.842e+001  8.030e+000
 3.624e+002  6.842e+001  8.030e+000
 3.490e+002  6.842e+001  8.030e+000
 3.356e+002  6.842e+001  8.030e+000
 3.222e+002  6.842e+001  8.030e+000
 3.088e+002  6.842e+001  8.030e+000
 2.954e+002  6.842e+001  8.030e+000
 5.500e+002  6.316e+001  8.030e+000
 5.366e+002  6.316e+001  8.030e+000
 5.232e+002  6.316e+001  8.030e+000
 5.098e+002  6.316e+001  8.030e+000
 4.964e+002  6.316e+001  8.030e+000
 4.830e+002  6.316e+001  8.030e+000
 4.696e+002  6.316e+001  8.030e+000
 4.562e+002  6.316e+001  8.030e+000
 4.428e+002  6.316e+001  8.030e+000
 4.294e+002  6.316e+001  8.030e+000
 4.160e+002  6.316e+001  8.030e+000
 4.026e+002  6.316e+001  8.030e+000
 3.892e+002  6.316e+001  8.030e+000
 3.758e+002  6.316e+001  8.030e+000
 3.624e+002  6.316e+001  8.030e+000
 3.490e+002  6.316e+001  8.030e+000
 3.356e+002  6.316e+001  8.030e+000
 3.222e+002  6.316e+001  8.030e+000
 3.088e+002  6.316e+001  8.030e+000
 2.954e+002  6.316e+001  8.030e+000
 5.500e+002  5.789e+001  8.030e+000
 5.366e+002  5.789e+001  8.030e+000
 5.232e+002  5.789e+001  8.030e+000
 5.098e+002  5.789e+001  8.030e+000
 4.964e+002  5.789e+001  8.030e+000
 4.830e+002  5.789e+001  8.030e+000
 4.696e+002  5.789e+001  8.030e+000
 4.562e+002  5.789e+001  8.030e+000
 4.428e+002  5.789e+001  8.030e+000
 4.294e+002  5.789e+001  8.030e+000
 4.160e+002  5.789e+001  8.030e+000
 4.026e+002  5.789e+001  8.030e+000
 3.892e+002  5.789e+001  8.030e+000
 3.758e+002  5.789e+001  8.030e+000
 3.624e+002  5.789e+001  8.030e+000
 3.490e+002  5.789e+001  8.030e+000
 3.356e+002  5.789e+001  8.030e+000
 3.222e+002  5.789e+001  8.030e+000
 3.088e+002  5.789e+001  8.030e+000
 2.954e+002  5.789e+001  8.030e+000
 5.500e+002  5.263e+001  8.030e+000
 5.366e+002  5.263e+001  8.030e+000
 5.232e+002  5.263e+001  8.030e+000
 5.098e+002  5.263e+001  8.030e+000
 4.964e+002  5.263e+001  8.030e+000
 4.830e+002  5.263e+001  8.030e+000
 4.696e+002  5.263e+001  8.030e+000
 4.562e+002  5.263e+001  8.030e+000
 4.428e+002  5.263e+001  8.030e+000
 4.294e+002  5.263e+001  8.030e+000
 4.160e+002  5.263e+001  8.030e+000
 4.026e+002  5.263e+001  8.030e+000
 3.892e+002  5.263e+001  8.030e+000
 3.758e+002  5.263e+001  8.030e+000
 3.624e+002  5.263e+001  8.030e+000
 3.490e+002  5.263e+001  8.030e+000
 3.356e+002  5.263e+001  8.030e+000
 3.222e+002  5.263e+001  8.030e+000
 3.088e+002  5.263e+001  8.030e+000
 2.954e+002  5.263e+001  8.030e+000
 5.500e+002  4.737e+001  8.030e+000
 5.366e+002  4.737e+001  8.030e+000
 5.232e+002  4.737e+001  8.030e+000
 5.098e+002  4.737e+001  8.030e+000
 4.964e+002  4.737e+001  8.030e+000
 4.830e+002  4.737e+001  8.030e+000
 4.696e+002  4.737e+001  8.030e+000
 4.562e+002  4.737e+001  8.030e+000
 4.428e+002  4.737e+001  8.030e+000
 4.294e+002  4.737e+001  8.030e+000
 4.160e+002  4.737e+001  8.030e+000
 4.026e+002  4.737e+001  8.030e+000
 3.892e+002  4.737e+001  8.030e+000
 3.758e+002  4.737e+001  8.030e+000
 3.624e+002  4.737e+001  8.030e+000
 3.490e+002  4.737e+001  8.030e+000
 3.356e+002  4.737e+001  8.030e+000
 3.222e+002  4.737e+001  8.030e+000
 3.088e+002  4.737e+001  8.030e+000
 2.954e+002  4.737e+001  8.030e+000
 5.500e+002  4.211e+001  8.030e+000
 5.366e+002  4.211e+001  8.030e+000
 5.232e+002  4.211e+001  8.030e+000
 5.098e+002  4.211e+001  8.030e+000
 4.964e+002  4.211e+001  8.030e+000
 4.830e+002  4.211e+001  8.030e+000
 4.696e+002  4.211e+001  8.030e+000
 4.562e+002  4.211e+001  8.030e+000
 4.428e+002  4.211e+001  8.030e+000
 4.294e+002  4.211e+001  8.030e+000
 4.160e+002  4.211e+001  8.030e+000
 4.026e+002  4.211e+001  8.030e+000
 3.892e+002  4.211e+001  8.030e+000
 3.758e+002  4.211e+001  8.030e+000
 3.624e+002  4.211e+001  8.030e+000
 3.490e+002  4.211e+001  8.030e+000
 3.356e+002  4.211e+001  8.030e+000
 3.222e+002  4.211e+001  8.030e+000
 3.088e+002  4.211e+001  8.030e+000
 2.954e+002  4.211e+001  8.030e+000
 5.500e+002  3.684e+001  8.030e+000
 5.366e+002  3.684e+001  8.030e+000
 5.232e+002  3.684e+001  8.030e+000
 5.098e+002  3.684e+001  8.030e+000
 4.964e+002  3.684e+001  8.030e+000
 4.830e+002  3.684e+001  8.030e+000
 4.696e+002  3.684e+001  8.030e+000
 4.562e+002  3.684e+001  8.030e+000
 4.428e+002  3.684e+001  8.030e+000
 4.294e+002  3.684e+001  8.030e+000
 4.160e+002  3.684e+001  8.030e+000
 4.026e+002  3.684e+001  8.030e+000
 3.892e+002  3.684e+001  8.030e+000
 3.758e+002  3.684e+001  8.030e+000
 3.624e+002  3.684e+001  8.030e+000
 3.490e+002  3.684e+001  8.030e+000
 3.356e+002  3.684e+001  8.030e+000
 3.222e+002  3.684e+001  8.030e+000
 3.088e+002  3.684e+001  8.030e+000
 2.954e+002  3.684e+001  8.030e+000
 5.500e+002  3.158e+001  8.030e+000
 5.366e+002  3.158e+001  8.030e+000
 5.232e+002  3.158e+001  8.030e+000
 5.098e+002  3.158e+001  8.030e+000
 4.964e+002  3.158e+001  8.030e+000
 4.830e+002  3.158e+001  8.030e+000
 4.696e+002  3.158e+001  8.030e+000
 4.562e+002  3.158e+001  8.030e+000
 4.428e+002  3.158e+001  8.030e+000
 4.294e+002  3.158e+001  8.030e+000
 4.160e+002  3.158e+001  8.030e+000
 4.026e+002  3.158e+001  8.030e+000
 3.892e+002  3.158e+001  8.030e+000
 3.758e+002  3.158e+001  8.030e+000
 3.624e+002  3.158e+001  8.030e+000
 3.490e+002  3.158e+001  8.030e+000
 3.356e+002  3.158e+001  8.030e+000
 3.222e+002  3.158e+001  8.030e+000
 3.088e+002  3.158e+001  8.030e+000
 2.954e+002  3.158e+001  8.030e+000
 5.500e+002  2.632e+001  8.030e+000
 5.366e+002  2.632e+001  8.030e+000
 5.232e+002  2.632e+001  8.030e+000
 5.098e+002  2.632e+001  8.030e+000
 4.964e+002  2.632e+001  8.030e+000
 4.830e+002  2.632e+001  8.030e+000
 4.696e+002  2.632e+001  8.030e+000
 4.562e+002  2.632e+001  8.030e+000
 4.428e+002  2.632e+001  8.030e+000
 4.294e+002  2.632e+001  8.030e+000
 4.160e+002  2.632e+001  8.030e+000
 4.026e+002  2.632e+001  8.030e+000
 3.892e+002  2.632e+001  8.030e+000
 3.758e+002  2.632e+001  8.030e+000
 3.624e+002  2.632e+001  8.030e+000
 3.490e+002  2.632e+001  8.030e+000
 3.356e+002  2.632e+001  8.030e+000
 3.222e+002  2.632e+001  8.030e+000
 3.088e+002  2.632e+001  8.030e+000
 2.954e+002  2.632e+001  8.030e+000
 5.500e+002  2.105e+001  8.030e+000
 5.366e+002  2.105e+001  8.030e+000
 5.232e+002  2.105e+001  8.030e+000
 5.098e+002  2.105e+001  8.030e+000
 4.964e+002  2.105e+001  8.030e+000
 4.830e+002  2.105e+001  8.030e+000
 4.696e+002  2.105e+001  8.030e+000
 4.562e+002  2.105e+001  8.030e+000
 4.428e+002  2.105e+001  8.030e+000
 4.294e+002  2.105e+001  8.030e+000
 4.160e+002  2.105e+001  8.030e+000
 4.026e+002  2.105e+001  8.030e+000
 3.892e+002  2.105e+001  8.030e+000
 3.758e+002  2.105e+001  8.030e+000
 3.624e+002  2.105e+001  8.030e+000
 3.490e+002  2.105e+001  8.030e+000
 3.356e+002  2.105e+001  8.030e+000
 3.222e+002  2.105e+001  8.030e+000
 3.088e+002  2.105e+001  8.030e+000
 2.954e+002  2.105e+001  8.030e+000
 5.500e+002  1.579e+001  8.030e+000
 5.366e+002  1.579e+001  8.030e+000
 5.232e+002  1.579e+001  8.030e+000
 5.098e+002  1.579e+001  8.030e+000
 4.964e+002  1.579e+001  8.030e+000
 4.830e+002  1.579e+001  8.030e+000
 4.696e+002  1.579e+001  8.030e+000
 4.562e+002  1.579e+001  8.030e+000
 4.428e+002  1.579e+001  8.030e+000
 4.294e+002  1.579e+001  8.030e+000
 4.160e+002  1.579e+001  8.030e+000
 4.026e+002  1.579e+001  8.030e+000
 3.892e+002  1.579e+001  8.030e+000
 3.758e+002  1.579e+001  8.030e+000
 3.624e+002  1.579e+001  8.030e+000
 3.490e+002  1.579e+001  8.030e+000
 3.356e+002  1.579e+001  8.030e+000
 3.222e+002  1.579e+001  8.030e+000
 3.088e+002  1.579e+001  8.030e+000
 2.954e+002  1.579e+001  8.030e+000
 5.500e+002  1.053e+001  8.030e+000
 5.366e+002  1.053e+001  8.030e+000
 5.232e+002  1.053e+001  8.030e+000
 5.098e+002  1.053e+001  8.030e+000
 4.964e+002  1.053e+001  8.030e+000
 4.830e+002  1.053e+001  8.030e+000
 4.696e+002  1.053e+001  8.030e+000
 4.562e+002  1.053e+001  8.030e+000
 4.428e+002  1.053e+001  8.030e+000
 4.294e+002  1.053e+001  8.030e+000
 4.160e+002  1.053e+001  8.030e+000
 4.026e+002  1.053e+001  8.030e+000
 3.892e+002  1.053e+001  8.030e+000
 3.758e+002  1.053e+001  8.030e+000
 3.624e+002  1.053e+001  8.030e+000
 3.490e+002  1.053e+001  8.030e+000
 3.356e+002  1.053e+001  8.030e+000
 3.222e+002  1.053e+001  8.030e+000
 3.088e+002  1.053e+001  8.030e+000
 2.954e+002  1.053e+001  8.030e+000
 5.500e+002  5.263e+000  8.030e+000
 5.366e+002  5.263e+000  8.030e+000
 5.232e+002  5.263e+000  8.030e+000
 5.098e+002  5.263e+000  8.030e+000
 4.964e+002  5.263e+000  8.030e+000
 4.830e+002  5.263e+000  8.030e+000
 4.696e+002  5.263e+000  8.030e+000
 4.562e+002  5.263e+000  8.030e+000
 4.428e+002  5.263e+000  8.030e+000
 4.294e+002  5.263e+000  8.030e+000
 4.160e+002  5.263e+000  8.030e+000
 4.026e+002  5.263e+000  8.030e+000
 3.892e+002  5.263e+000  8.030e+000
 3.758e+002  5.263e+000  8.030e+000
 3.624e+002  5.263e+000  8.030e+000
 3.490e+002  5.263e+000  8.030e+000
 3.356e+002  5.263e+000  8.030e+000
 3.222e+002  5.263e+000  8.030e+000
 3.088e+002  5.263e+000  8.030e+000
 2.954e+002  5.263e+000  8.030e+000
 5.500e+002  0.000e+000  8.030e+000
 5.366e+002  0.000e+000  8.030e+000
 5.232e+002  0.000e+000  8.030e+000
 5.098e+002  0.000e+000  8.030e+000
 4.964e+002  0.000e+000  8.030e+000
 4.830e+002  0.000e+000  8.030e+000
 4.696e+002  0.000e+000  8.030e+000
 4.562e+002  0.000e+000  8.030e+000
 4.428e+002  0.000e+000  8.030e+000
 4.294e+002  0.000e+000  8.030e+000
 4.160e+002  0.000e+000  8.030e+000
 4.026e+002  0.000e+000  8.030e+000
 3.892e+002  0.000e+000  8.030e+000
 3.758e+002  0.000e+000  8.030e+000
 3.624e+002  0.000e+000  8.030e+000
 3.490e+002  0.000e+000  8.030e+000
 3.356e+002  0.000e+000  8.030e+000
 3.222e+002  0.000e+000  8.030e+000
 3.088e+002  0.000e+000  8.030e+000
 2.954e+002  0.000e+000  8.030e+000
 2.802e+002  1.000e+002  8.030e+000
 2.651e+002  1.000e+002  8.030e+000
 2.499e+002  1.000e+002  8.030e+000
 2.348e+002  1.000e+002  8.030e+000
 2.196e+002  1.000e+002  8.030e+000
 2.045e+002  1.000e+002  8.030e+000
 1.893e+002  1.000e+002  8.030e+000
 1.742e+002  1.000e+002  8.030e+000
 1.590e+002  1.000e+002  8.030e+000
 1.438e+002  1.000e+002  8.030e+000
 1.287e+002  1.000e+002  8.030e+000
 1.135e+002  1.000e+002  8.030e+000
 9.838e+001  1.000e+002  8.030e+000
 8.322e+001  1.000e+002  8.030e+000
 6.807e+001  1.000e+002  8.030e+000
 5.291e+001  1.000e+002  8.030e+000
 3.776e+001  1.000e+002  8.030e+000
 2.260e+001  1.000e+002  8.030e+000
 7.448e+000  1.000e+002  8.030e+000
 2.806e+002  9.547e+001  8.030e+000
 2.656e+002  9.570e+001  8.030e+000
 2.504e+002  9.597e+001  8.030e+000
 2.352e+002  9.605e+001  8.030e+000
 2.200e+002  9.605e+001  8.030e+000
 2.048e+002  9.605e+001  8.030e+000
 1.896e+002  9.605e+001  8.030e+000
 1.744e+002  9.605e+001  8.030e+000
 1.592e+002  9.605e+001  8.030e+000
 1.440e+002  9.605e+001  8.030e+000
 1.288e+002  9.605e+001  8.030e+000
 1.136e+002  9.605e+001  8.030e+000
 9.837e+001  9.605e+001  8.030e+000
 8.317e+001  9.607e+001  8.030e+000
 6.796e+001  9.604e+001  8.030e+000
 5.277e+001  9.587e+001  8.030e+000
 3.764e+001  9.553e+001  8.030e+000
 2.257e+001  9.507e+001  8.030e+000
 7.448e+000  9.474e+001  8.030e+000
 2.809e+002  9.095e+001  8.030e+000
 2.662e+002  9.140e+001  8.030e+000
 2.509e+002  9.195e+001  8.030e+000
 2.357e+002  9.210e+001  8.030e+000
 2.204e+002  9.211e+001  8.030e+000
 2.052e+002  9.211e+001  8.030e+000
 1.899e+002  9.211e+001  8.030e+000
 1.746e+002  9.211e+001  8.030e+000
 1.594e+002  9.211e+001  8.030e+000
 1.441e+002  9.211e+001  8.030e+000
 1.289e+002  9.211e+001  8.030e+000
 1.136e+002  9.211e+001  8.030e+000
 9.836e+001  9.210e+001  8.030e+000
 8.311e+001  9.214e+001  8.030e+000
 6.786e+001  9.208e+001  8.030e+000
 5.262e+001  9.174e+001  8.030e+000
 3.753e+001  9.106e+001  8.030e+000
 2.254e+001  9.013e+001  8.030e+000
 7.448e+000  8.947e+001  8.030e+000
 2.812e+002  8.642e+001  8.030e+000
 2.667e+002  8.711e+001  8.030e+000
 2.515e+002  8.792e+001  8.030e+000
 2.361e+002  8.814e+001  8.030e+000
 2.208e+002  8.816e+001  8.030e+000
 2.055e+002  8.816e+001  8.030e+000
 1.902e+002  8.816e+001  8.030e+000
 1.749e+002  8.816e+001  8.030e+000
 1.596e+002  8.816e+001  8.030e+000
 1.443e+002  8.816e+001  8.030e+000
 1.290e+002  8.816e+001  8.030e+000
 1.137e+002  8.816e+001  8.030e+000
 9.835e+001  8.815e+001  8.030e+000
 8.305e+001  8.820e+001  8.030e+000
 6.775e+001  8.811e+001  8.030e+000
 5.248e+001  8.760e+001  8.030e+000
 3.742e+001  8.659e+001  8.030e+000
 2.250e+001  8.520e+001  8.030e+000
 7.448e+000  8.421e+001  8.030e+000
 2.815e+002  8.190e+001  8.030e+000
 2.672e+002  8.281e+001  8.030e+000
 2.520e+002  8.390e+001  8.030e+000
 2.366e+002  8.419e+001  8.030e+000
 2.212e+002  8.421e+001  8.030e+000
 2.058e+002  8.421e+001  8.030e+000
 1.905e+002  8.421e+001  8.030e+000
 1.751e+002  8.421e+001  8.030e+000
 1.598e+002  8.421e+001  8.030e+000
 1.444e+002  8.421e+001  8.030e+000
 1.291e+002  8.421e+001  8.030e+000
 1.137e+002  8.421e+001  8.030e+000
 9.834e+001  8.420e+001  8.030e+000
 8.299e+001  8.427e+001  8.030e+000
 6.764e+001  8.415e+001  8.030e+000
 5.233e+001  8.347e+001  8.030e+000
 3.730e+001  8.212e+001  8.030e+000
 2.247e+001  8.027e+001  8.030e+000
 7.448e+000  7.895e+001  8.030e+000
 2.818e+002  7.737e+001  8.030e+000
 2.678e+002  7.851e+001  8.030e+000
 2.525e+002  7.987e+001  8.030e+000
 2.370e+002  8.024e+001  8.030e+000
 2.216e+002  8.026e+001  8.030e+000
 2.062e+002  8.026e+001  8.030e+000
 1.908e+002  8.026e+001  8.030e+000
 1.754e+002  8.026e+001  8.030e+000
 1.600e+002  8.026e+001  8.030e+000
 1.446e+002  8.027e+001  8.030e+000
 1.292e+002  8.027e+001  8.030e+000
 1.137e+002  8.027e+001  8.030e+000
 9.834e+001  8.025e+001  8.030e+000
 8.293e+001  8.034e+001  8.030e+000
 6.753e+001  8.019e+001  8.030e+000
 5.219e+001  7.934e+001  8.030e+000
 3.719e+001  7.765e+001  8.030e+000
 2.243e+001  7.533e+001  8.030e+000
 7.448e+000  7.368e+001  8.030e+000
 2.821e+002  7.285e+001  8.030e+000
 2.683e+002  7.421e+001  8.030e+000
 2.530e+002  7.584e+001  8.030e+000
 2.374e+002  7.629e+001  8.030e+000
 2.220e+002  7.632e+001  8.030e+000
 2.065e+002  7.632e+001  8.030e+000
 1.911e+002  7.632e+001  8.030e+000
 1.756e+002  7.632e+001  8.030e+000
 1.602e+002  7.632e+001  8.030e+000
 1.447e+002  7.632e+001  8.030e+000
 1.292e+002  7.632e+001  8.030e+000
 1.138e+002  7.632e+001  8.030e+000
 9.833e+001  7.630e+001  8.030e+000
 8.287e+001  7.641e+001  8.030e+000
 6.743e+001  7.623e+001  8.030e+000
 5.204e+001  7.521e+001  8.030e+000
 3.708e+001  7.318e+001  8.030e+000
 2.240e+001  7.040e+001  8.030e+000
 7.448e+000  6.842e+001  8.030e+000
 2.825e+002  6.832e+001  8.030e+000
 2.688e+002  6.992e+001  8.030e+000
 2.535e+002  7.182e+001  8.030e+000
 2.379e+002  7.233e+001  8.030e+000
 2.224e+002  7.237e+001  8.030e+000
 2.069e+002  7.237e+001  8.030e+000
 1.914e+002  7.237e+001  8.030e+000
 1.759e+002  7.237e+001  8.030e+000
 1.604e+002  7.237e+001  8.030e+000
 1.448e+002  7.237e+001  8.030e+000
 1.293e+002  7.237e+001  8.030e+000
 1.138e+002  7.237e+001  8.030e+000
 9.832e+001  7.235e+001  8.030e+000
 8.281e+001  7.248e+001  8.030e+000
 6.732e+001  7.226e+001  8.030e+000
 5.190e+001  7.108e+001  8.030e+000
 3.696e+001  6.871e+001  8.030e+000
 2.237e+001  6.547e+001  8.030e+000
 7.448e+000  6.316e+001  8.030e+000
 2.828e+002  6.380e+001  8.030e+000
 2.694e+002  6.562e+001  8.030e+000
 2.540e+002  6.779e+001  8.030e+000
 2.383e+002  6.838e+001  8.030e+000
 2.228e+002  6.842e+001  8.030e+000
 2.072e+002  6.842e+001  8.030e+000
 1.917e+002  6.842e+001  8.030e+000
 1.761e+002  6.842e+001  8.030e+000
 1.605e+002  6.842e+001  8.030e+000
 1.450e+002  6.843e+001  8.030e+000
 1.294e+002  6.842e+001  8.030e+000
 1.139e+002  6.842e+001  8.030e+000
 9.831e+001  6.840e+001  8.030e+000
 8.275e+001  6.854e+001  8.030e+000
 6.721e+001  6.830e+001  8.030e+000
 5.175e+001  6.695e+001  8.030e+000
 3.685e+001  6.424e+001  8.030e+000
 2.233e+001  6.054e+001  8.030e+000
 7.448e+000  5.789e+001  8.030e+000
 2.831e+002  5.927e+001  8.030e+000
 2.699e+002  6.132e+001  8.030e+000
 2.545e+002  6.377e+001  8.030e+000
 2.388e+002  6.443e+001  8.030e+000
 2.232e+002  6.447e+001  8.030e+000
 2.076e+002  6.448e+001  8.030e+000
 1.920e+002  6.447e+001  8.030e+000
 1.764e+002  6.447e+001  8.030e+000
 1.607e+002  6.448e+001  8.030e+000
 1.451e+002  6.448e+001  8.030e+000
 1.295e+002  6.448e+001  8.030e+000
 1.139e+002  6.448e+001  8.030e+000
 9.830e+001  6.445e+001  8.030e+000
 8.269e+001  6.461e+001  8.030e+000
 6.710e+001  6.434e+001  8.030e+000
 5.161e+001  6.281e+001  8.030e+000
 3.673e+001  5.977e+001  8.030e+000
 2.230e+001  5.560e+001  8.030e+000
 7.448e+000  5.263e+001  8.030e+000
 2.834e+002  5.475e+001  8.030e+000
 2.705e+002  5.702e+001  8.030e+000
 2.550e+002  5.974e+001  8.030e+000
 2.392e+002  6.048e+001  8.030e+000
 2.236e+002  6.053e+001  8.030e+000
 2.079e+002  6.053e+001  8.030e+000
 1.923e+002  6.053e+001  8.030e+000
 1.766e+002  6.053e+001  8.030e+000
 1.609e+002  6.053e+001  8.030e+000
 1.453e+002  6.053e+001  8.030e+000
 1.296e+002  6.053e+001  8.030e+000
 1.140e+002  6.053e+001  8.030e+000
 9.829e+001  6.050e+001  8.030e+000
 8.263e+001  6.068e+001  8.030e+000
 6.700e+001  6.038e+001  8.030e+000
 5.146e+001  5.868e+001  8.030e+000
 3.662e+001  5.530e+001  8.030e+000
 2.226e+001  5.067e+001  8.030e+000
 7.448e+000  4.737e+001  8.030e+000
 2.837e+002  5.022e+001  8.030e+000
 2.710e+002  5.273e+001  8.030e+000
 2.555e+002  5.571e+001  8.030e+000
 2.397e+002  5.652e+001  8.030e+000
 2.240e+002  5.658e+001  8.030e+000
 2.083e+002  5.658e+001  8.030e+000
 1.926e+002  5.658e+001  8.030e+000
 1.768e+002  5.658e+001  8.030e+000
 1.611e+002  5.658e+001  8.030e+000
 1.454e+002  5.659e+001  8.030e+000
 1.297e+002  5.658e+001  8.030e+000
 1.140e+002  5.658e+001  8.030e+000
 9.828e+001  5.655e+001  8.030e+000
 8.257e+001  5.675e+001  8.030e+000
 6.689e+001  5.641e+001  8.030e+000
 5.132e+001  5.455e+001  8.030e+000
 3.651e+001  5.083e+001  8.030e+000
 2.223e+001  4.574e+001  8.030e+000
 7.448e+000  4.211e+001  8.030e+000
 2.840e+002  4.569e+001  8.030e+000
 2.715e+002  4.843e+001  8.030e+000
 2.560e+002  5.169e+001  8.030e+000
 2.401e+002  5.257e+001  8.030e+000
 2.244e+002  5.263e+001  8.030e+000
 2.086e+002  5.263e+001  8.030e+000
 1.928e+002  5.263e+001  8.030e+000
 1.771e+002  5.263e+001  8.030e+000
 1.613e+002  5.263e+001  8.030e+000
 1.456e+002  5.264e+001  8.030e+000
 1.298e+002  5.264e+001  8.030e+000
 1.140e+002  5.264e+001  8.030e+000
 9.827e+001  5.260e+001  8.030e+000
 8.251e+001  5.281e+001  8.030e+000
 6.678e+001  5.245e+001  8.030e+000
 5.117e+001  5.042e+001  8.030e+000
 3.639e+001  4.636e+001  8.030e+000
 2.219e+001  4.080e+001  8.030e+000
 7.448e+000  3.684e+001  8.030e+000
 2.843e+002  4.117e+001  8.030e+000
 2.721e+002  4.413e+001  8.030e+000
 2.565e+002  4.766e+001  8.030e+000
 2.405e+002  4.862e+001  8.030e+000
 2.248e+002  4.868e+001  8.030e+000
 2.090e+002  4.869e+001  8.030e+000
 1.931e+002  4.868e+001  8.030e+000
 1.773e+002  4.868e+001  8.030e+000
 1.615e+002  4.869e+001  8.030e+000
 1.457e+002  4.869e+001  8.030e+000
 1.299e+002  4.869e+001  8.030e+000
 1.141e+002  4.869e+001  8.030e+000
 9.827e+001  4.865e+001  8.030e+000
 8.245e+001  4.888e+001  8.030e+000
 6.668e+001  4.849e+001  8.030e+000
 5.103e+001  4.629e+001  8.030e+000
 3.628e+001  4.189e+001  8.030e+000
 2.216e+001  3.587e+001  8.030e+000
 7.448e+000  3.158e+001  8.030e+000
 2.847e+002  3.664e+001  8.030e+000
 2.726e+002  3.983e+001  8.030e+000
 2.570e+002  4.364e+001  8.030e+000
 2.410e+002  4.467e+001  8.030e+000
 2.252e+002  4.474e+001  8.030e+000
 2.093e+002  4.474e+001  8.030e+000
 1.934e+002  4.474e+001  8.030e+000
 1.776e+002  4.474e+001  8.030e+000
 1.617e+002  4.474e+001  8.030e+000
 1.458e+002  4.474e+001  8.030e+000
 1.300e+002  4.474e+001  8.030e+000
 1.141e+002  4.474e+001  8.030e+000
 9.826e+001  4.470e+001  8.030e+000
 8.239e+001  4.495e+001  8.030e+000
 6.657e+001  4.453e+001  8.030e+000
 5.088e+001  4.216e+001  8.030e+000
 3.616e+001  3.742e+001  8.030e+000
 2.213e+001  3.094e+001  8.030e+000
 7.448e+000  2.632e+001  8.030e+000
 2.850e+002  3.212e+001  8.030e+000
 2.731e+002  3.554e+001  8.030e+000
 2.575e+002  3.961e+001  8.030e+000
 2.414e+002  4.071e+001  8.030e+000
 2.256e+002  4.079e+001  8.030e+000
 2.096e+002  4.079e+001  8.030e+000
 1.937e+002  4.079e+001  8.030e+000
 1.778e+002  4.079e+001  8.030e+000
 1.619e+002  4.079e+001  8.030e+000
 1.460e+002  4.080e+001  8.030e+000
 1.301e+002  4.080e+001  8.030e+000
 1.142e+002  4.080e+001  8.030e+000
 9.825e+001  4.075e+001  8.030e+000
 8.233e+001  4.102e+001  8.030e+000
 6.646e+001  4.057e+001  8.030e+000
 5.074e+001  3.802e+001  8.030e+000
 3.605e+001  3.295e+001  8.030e+000
 2.209e+001  2.600e+001  8.030e+000
 7.448e+000  2.105e+001  8.030e+000
 2.853e+002  2.759e+001  8.030e+000
 2.737e+002  3.124e+001  8.030e+000
 2.580e+002  3.558e+001  8.030e+000
 2.419e+002  3.676e+001  8.030e+000
 2.260e+002  3.684e+001  8.030e+000
 2.100e+002  3.685e+001  8.030e+000
 1.940e+002  3.684e+001  8.030e+000
 1.781e+002  3.684e+001  8.030e+000
 1.621e+002  3.684e+001  8.030e+000
 1.461e+002  3.685e+001  8.030e+000
 1.302e+002  3.685e+001  8.030e+000
 1.142e+002  3.685e+001  8.030e+000
 9.824e+001  3.680e+001  8.030e+000
 8.227e+001  3.709e+001  8.030e+000
 6.635e+001  3.660e+001  8.030e+000
 5.059e+001  3.389e+001  8.030e+000
 3.594e+001  2.848e+001  8.030e+000
 2.206e+001  2.107e+001  8.030e+000
 7.448e+000  1.579e+001  8.030e+000
 2.856e+002  2.307e+001  8.030e+000
 2.742e+002  2.694e+001  8.030e+000
 2.585e+002  3.156e+001  8.030e+000
 2.423e+002  3.281e+001  8.030e+000
 2.264e+002  3.289e+001  8.030e+000
 2.103e+002  3.290e+001  8.030e+000
 1.943e+002  3.289e+001  8.030e+000
 1.783e+002  3.289e+001  8.030e+000
 1.623e+002  3.290e+001  8.030e+000
 1.463e+002  3.290e+001  8.030e+000
 1.303e+002  3.290e+001  8.030e+000
 1.142e+002  3.290e+001  8.030e+000
 9.823e+001  3.285e+001  8.030e+000
 8.221e+001  3.315e+001  8.030e+000
 6.625e+001  3.264e+001  8.030e+000
 5.045e+001  2.976e+001  8.030e+000
 3.582e+001  2.401e+001  8.030e+000
 2.202e+001  1.614e+001  8.030e+000
 7.448e+000  1.053e+001  8.030e+000
 2.859e+002  1.854e+001  8.030e+000
 2.747e+002  2.264e+001  8.030e+000
 2.590e+002  2.753e+001  8.030e+000
 2.428e+002  2.886e+001  8.030e+000
 2.268e+002  2.895e+001  8.030e+000
 2.107e+002  2.895e+001  8.030e+000
 1.946e+002  2.895e+001  8.030e+000
 1.785e+002  2.895e+001  8.030e+000
 1.625e+002  2.895e+001  8.030e+000
 1.464e+002  2.896e+001  8.030e+000
 1.304e+002  2.895e+001  8.030e+000
 1.143e+002  2.895e+001  8.030e+000
 9.822e+001  2.890e+001  8.030e+000
 8.215e+001  2.922e+001  8.030e+000
 6.614e+001  2.868e+001  8.030e+000
 5.030e+001  2.563e+001  8.030e+000
 3.571e+001  1.954e+001  8.030e+000
 2.199e+001  1.120e+001  8.030e+000
 7.448e+000  5.263e+000  8.030e+000
 2.862e+002  1.402e+001  8.030e+000
 2.753e+002  1.835e+001  8.030e+000
 2.595e+002  2.351e+001  8.030e+000
 2.432e+002  2.490e+001  8.030e+000
 2.272e+002  2.500e+001  8.030e+000
 2.110e+002  2.500e+001  8.030e+000
 1.949e+002  2.500e+001  8.030e+000
 1.788e+002  2.500e+001  8.030e+000
 1.627e+002  2.500e+001  8.030e+000
 1.466e+002  2.501e+001  8.030e+000
 1.304e+002  2.501e+001  8.030e+000
 1.143e+002  2.501e+001  8.030e+000
 9.821e+001  2.495e+001  8.030e+000
 8.209e+001  2.529e+001  8.030e+000
 6.603e+001  2.472e+001  8.030e+000
 5.016e+001  2.150e+001  8.030e+000
 3.560e+001  1.507e+001  8.030e+000
 2.196e+001  6.271e+000  8.030e+000
 7.448e+000  0.000e+000  8.030e+000
-6.102e+000  1.000e+002  8.030e+000
-1.965e+001  1.000e+002  8.030e+000
-3.320e+001  1.000e+002  8.030e+000
-4.675e+001  1.000e+002  8.030e+000
-6.030e+001  1.000e+002  8.030e+000
-7.385e+001  1.000e+002  8.030e+000
-8.740e+001  1.000e+002  8.030e+000
-1.010e+002  1.000e+002  8.030e+000
-1.145e+002  1.000e+002  8.030e+000
-1.281e+002  1.000e+002  8.030e+000
-1.416e+002  1.000e+002  8.030e+000
-1.552e+002  1.000e+002  8.030e+000
-1.687e+002  1.000e+002  8.030e+000
-1.823e+002  1.000e+002  8.030e+000
-1.958e+002  1.000e+002  8.030e+000
-2.094e+002  1.000e+002  8.030e+000
-2.229e+002  1.000e+002  8.030e+000
-2.365e+002  1.000e+002  8.030e+000
-2.500e+002  1.000e+002  8.030e+000
-6.102e+000  9.474e+001  8.030e+000
-1.965e+001  9.474e+001  8.030e+000
-3.320e+001  9.474e+001  8.030e+000
-4.675e+001  9.474e+001  8.030e+000
-6.030e+001  9.474e+001  8.030e+000
-7.385e+001  9.474e+001  8.030e+000
-8.740e+001  9.474e+001  8.030e+000
-1.010e+002  9.474e+001  8.030e+000
-1.145e+002  9.474e+001  8.030e+000
-1.281e+002  9.474e+001  8.030e+000
-1.416e+002  9.474e+001  8.030e+000
-1.552e+002  9.474e+001  8.030e+000
-1.687e+002  9.474e+001  8.030e+000
-1.823e+002  9.474e+001  8.030e+000
-1.958e+002  9.474e+001  8.030e+000
-2.094e+002  9.474e+001  8.030e+000
-2.229e+002  9.474e+001  8.030e+000
-2.365e+002  9.474e+001  8.030e+000
-2.500e+002  9.474e+001  8.030e+000
-6.102e+000  8.947e+001  8.030e+000
-1.965e+001  8.947e+001  8.030e+000
-3.320e+001  8.947e+001  8.030e+000
-4.675e+001  8.947e+001  8.030e+000
-6.030e+001  8.947e+001  8.030e+000
-7.385e+001  8.947e+001  8.030e+000
-8.740e+001  8.947e+001  8.030e+000
-1.010e+002  8.947e+001  8.030e+000
-1.145e+002  8.947e+001  8.030e+000
-1.281e+002  8.947e+001  8.030e+000
-1.416e+002  8.947e+001  8.030e+000
-1.552e+002  8.947e+001  8.030e+000