TITLE = "NODEELEMENT"
VARIABLES = "X", "Y", "Z"
ZONE N=    1194, E=    1064, F=FEPOINT, ET=QUADRILATERAL
 5.475e+002  1.000e+002  8.000e+000
 5.189e+002  1.000e+002  8.000e+000
 4.903e+002  1.000e+002  8.000e+000
 4.617e+002  1.000e+002  8.000e+000
 4.331e+002  1.000e+002  8.000e+000
 4.044e+002  1.000e+002  8.000e+000
 3.758e+002  1.000e+002  8.000e+000
 3.472e+002  1.000e+002  8.000e+000
 3.186e+002  1.000e+002  8.000e+000
 2.900e+002  1.000e+002  8.000e+000
 5.475e+002  8.947e+001  8.000e+000
 5.189e+002  8.947e+001  8.000e+000
 4.903e+002  8.947e+001  8.000e+000
 4.617e+002  8.947e+001  8.000e+000
 4.331e+002  8.947e+001  8.000e+000
 4.044e+002  8.947e+001  8.000e+000
 3.758e+002  8.947e+001  8.000e+000
 3.472e+002  8.947e+001  8.000e+000
 3.186e+002  8.947e+001  8.000e+000
 2.900e+002  8.947e+001  8.000e+000
 5.475e+002  7.895e+001  8.000e+000
 5.189e+002  7.895e+001  8.000e+000
 4.903e+002  7.895e+001  8.000e+000
 4.617e+002  7.895e+001  8.000e+000
 4.331e+002  7.895e+001  8.000e+000
 4.044e+002  7.895e+001  8.000e+000
 3.758e+002  7.895e+001  8.000e+000
 3.472e+002  7.895e+001  8.000e+000
 3.186e+002  7.895e+001  8.000e+000
 2.900e+002  7.895e+001  8.000e+000
 5.475e+002  6.842e+001  8.000e+000
 5.189e+002  6.842e+001  8.000e+000
 4.903e+002  6.842e+001  8.000e+000
 4.617e+002  6.842e+001  8.000e+000
 4.331e+002  6.842e+001  8.000e+000
 4.044e+002  6.842e+001  8.000e+000
 3.758e+002  6.842e+001  8.000e+000
 3.472e+002  6.842e+001  8.000e+000
 3.186e+002  6.842e+001  8.000e+000
 2.900e+002  6.842e+001  8.000e+000
 5.475e+002  5.789e+001  8.000e+000
 5.189e+002  5.789e+001  8.000e+000
 4.903e+002  5.789e+001  8.000e+000
 4.617e+002  5.789e+001  8.000e+000
 4.331e+002  5.789e+001  8.000e+000
 4.044e+002  5.789e+001  8.000e+000
 3.758e+002  5.789e+001  8.000e+000
 3.472e+002  5.789e+001  8.000e+000
 3.186e+002  5.789e+001  8.000e+000
 2.900e+002  5.789e+001  8.000e+000
 5.475e+002  4.737e+001  8.000e+000
 5.189e+002  4.737e+001  8.000e+000
 4.903e+002  4.737e+001  8.000e+000
 4.617e+002  4.737e+001  8.000e+000
 4.331e+002  4.737e+001  8.000e+000
 4.044e+002  4.737e+001  8.000e+000
 3.758e+002  4.737e+001  8.000e+000
 3.472e+002  4.737e+001  8.000e+000
 3.186e+002  4.737e+001  8.000e+000
 2.900e+002  4.737e+001  8.000e+000
 5.475e+002  3.684e+001  8.000e+000
 5.189e+002  3.684e+001  8.000e+000
 4.903e+002  3.684e+001  8.000e+000
 4.617e+002  3.684e+001  8.000e+000
 4.331e+002  3.684e+001  8.000e+000
 4.044e+002  3.684e+001  8.000e+000
 3.758e+002  3.684e+001  8.000e+000
 3.472e+002  3.684e+001  8.000e+000
 3.186e+002  3.684e+001  8.000e+000
 2.900e+002  3.684e+001  8.000e+000
 5.475e+002  2.632e+001  8.000e+000
 5.189e+002  2.632e+001  8.000e+000
 4.903e+002  2.632e+001  8.000e+000
 4.617e+002  2.632e+001  8.000e+000
 4.331e+002  2.632e+001  8.000e+000
 4.044e+002  2.632e+001  8.000e+000
 3.758e+002  2.632e+001  8.000e+000
 3.472e+002  2.632e+001  8.000e+000
 3.186e+002  2.632e+001  8.000e+000
 2.900e+002  2.632e+001  8.000e+000
 5.475e+002  1.579e+001  8.000e+000
 5.189e+002  1.579e+001  8.000e+000
 4.903e+002  1.579e+001  8.000e+000
 4.617e+002  1.579e+001  8.000e+000
 4.331e+002  1.579e+001  8.000e+000
 4.044e+002  1.579e+001  8.000e+000
 3.758e+002  1.579e+001  8.000e+000
 3.472e+002  1.579e+001  8.000e+000
 3.186e+002  1.579e+001  8.000e+000
 2.900e+002  1.579e+001  8.000e+000
 5.475e+002  5.263e+000  8.000e+000
 5.189e+002  5.263e+000  8.000e+000
 4.903e+002  5.263e+000  8.000e+000
 4.617e+002  5.263e+000  8.000e+000
 4.331e+002  5.263e+000  8.000e+000
 4.044e+002  5.263e+000  8.000e+000
 3.758e+002  5.263e+000  8.000e+000
 3.472e+002  5.263e+000  8.000e+000
 3.186e+002  5.263e+000  8.000e+000
 2.900e+002  5.263e+000  8.000e+000
 5.475e+002 -5.263e+000  8.000e+000
 5.189e+002 -5.263e+000  8.000e+000
 4.903e+002 -5.263e+000  8.000e+000
 4.617e+002 -5.263e+000  8.000e+000
 4.331e+002 -5.263e+000  8.000e+000
 4.044e+002 -5.263e+000  8.000e+000
 3.758e+002 -5.263e+000  8.000e+000
 3.472e+002 -5.263e+000  8.000e+000
 3.186e+002 -5.263e+000  8.000e+000
 2.900e+002 -5.263e+000  8.000e+000
 5.475e+002 -1.579e+001  8.000e+000
 5.189e+002 -1.579e+001  8.000e+000
 4.903e+002 -1.579e+001  8.000e+000
 4.617e+002 -1.579e+001  8.000e+000
 4.331e+002 -1.579e+001  8.000e+000
 4.044e+002 -1.579e+001  8.000e+000
 3.758e+002 -1.579e+001  8.000e+000
 3.472e+002 -1.579e+001  8.000e+000
 3.186e+002 -1.579e+001  8.000e+000
 2.900e+002 -1.579e+001  8.000e+000
 5.475e+002 -2.632e+001  8.000e+000
 5.189e+002 -2.632e+001  8.000e+000
 4.903e+002 -2.632e+001  8.000e+000
 4.617e+002 -2.632e+001  8.000e+000
 4.331e+002 -2.632e+001  8.000e+000
 4.044e+002 -2.632e+001  8.000e+000
 3.758e+002 -2.632e+001  8.000e+000
 3.472e+002 -2.632e+001  8.000e+000
 3.186e+002 -2.632e+001  8.000e+000
 2.900e+002 -2.632e+001  8.000e+000
 5.475e+002 -3.684e+001  8.000e+000
 5.189e+002 -3.684e+001  8.000e+000
 4.903e+002 -3.684e+001  8.000e+000
 4.617e+002 -3.684e+001  8.000e+000
 4.331e+002 -3.684e+001  8.000e+000
 4.044e+002 -3.684e+001  8.000e+000
 3.758e+002 -3.684e+001  8.000e+000
 3.472e+002 -3.684e+001  8.000e+000
 3.186e+002 -3.684e+001  8.000e+000
 2.900e+002 -3.684e+001  8.000e+000
 5.475e+002 -4.737e+001  8.000e+000
 5.189e+002 -4.737e+001  8.000e+000
 4.903e+002 -4.737e+001  8.000e+000
 4.617e+002 -4.737e+001  8.000e+000
 4.331e+002 -4.737e+001  8.000e+000
 4.044e+002 -4.737e+001  8.000e+000
 3.758e+002 -4.737e+001  8.000e+000
 3.472e+002 -4.737e+001  8.000e+000
 3.186e+002 -4.737e+001  8.000e+000
 2.900e+002 -4.737e+001  8.000e+000
 5.475e+002 -5.789e+001  8.000e+000
 5.189e+002 -5.789e+001  8.000e+000
 4.903e+002 -5.789e+001  8.000e+000
 4.617e+002 -5.789e+001  8.000e+000
 4.331e+002 -5.789e+001  8.000e+000
 4.044e+002 -5.789e+001  8.000e+000
 3.758e+002 -5.789e+001  8.000e+000
 3.472e+002 -5.789e+001  8.000e+000
 3.186e+002 -5.789e+001  8.000e+000
 2.900e+002 -5.789e+001  8.000e+000
 5.475e+002 -6.842e+001  8.000e+000
 5.189e+002 -6.842e+001  8.000e+000
 4.903e+002 -6.842e+001  8.000e+000
 4.617e+002 -6.842e+001  8.000e+000
 4.331e+002 -6.842e+001  8.000e+000
 4.044e+002 -6.842e+001  8.000e+000
 3.758e+002 -6.842e+001  8.000e+000
 3.472e+002 -6.842e+001  8.000e+000
 3.186e+002 -6.842e+001  8.000e+000
 2.900e+002 -6.842e+001  8.000e+000
 5.475e+002 -7.895e+001  8.000e+000
 5.189e+002 -7.895e+001  8.000e+000
 4.903e+002 -7.895e+001  8.000e+000
 4.617e+002 -7.895e+001  8.000e+000
 4.331e+002 -7.895e+001  8.000e+000
 4.044e+002 -7.895e+001  8.000e+000
 3.758e+002 -7.895e+001  8.000e+000
 3.472e+002 -7.895e+001  8.000e+000
 3.186e+002 -7.895e+001  8.000e+000
 2.900e+002 -7.895e+001  8.000e+000
 5.475e+002 -8.947e+001  8.000e+000
 5.189e+002 -8.947e+001  8.000e+000
 4.903e+002 -8.947e+001  8.000e+000
 4.617e+002 -8.947e+001  8.000e+000
 4.331e+002 -8.947e+001  8.000e+000
 4.044e+002 -8.947e+001  8.000e+000
 3.758e+002 -8.947e+001  8.000e+000
 3.472e+002 -8.947e+001  8.000e+000
 3.186e+002 -8.947e+001  8.000e+000
 2.900e+002 -8.947e+001  8.000e+000
 5.475e+002 -1.000e+002  8.000e+000
 5.189e+002 -1.000e+002  8.000e+000
 4.903e+002 -1.000e+002  8.000e+000
 4.617e+002 -1.000e+002  8.000e+000
 4.331e+002 -1.000e+002  8.000e+000
 4.044e+002 -1.000e+002  8.000e+000
 3.758e+002 -1.000e+002  8.000e+000
 3.472e+002 -1.000e+002  8.000e+000
 3.186e+002 -1.000e+002  8.000e+000
 2.900e+002 -1.000e+002  8.000e+000
 2.747e+002  1.000e+002  8.000e+000
 2.595e+002  1.000e+002  8.000e+000
 2.442e+002  1.000e+002  8.000e+000
 2.289e+002  1.000e+002  8.000e+000
 2.137e+002  1.000e+002  8.000e+000
 1.984e+002  1.000e+002  8.000e+000
 1.832e+002  1.000e+002  8.000e+000
 1.679e+002  1.000e+002  8.000e+000
 1.526e+002  1.000e+002  8.000e+000
 1.374e+002  1.000e+002  8.000e+000
 1.221e+002  1.000e+002  8.000e+000
 1.068e+002  1.000e+002  8.000e+000
 9.158e+001  1.000e+002  8.000e+000
 7.632e+001  1.000e+002  8.000e+000
 6.105e+001  1.000e+002  8.000e+000
 4.579e+001  1.000e+002  8.000e+000
 3.053e+001  1.000e+002  8.000e+000
 1.526e+001  1.000e+002  8.000e+000
 0.000e+000  1.000e+002  8.000e+000
 2.900e+002  8.889e+001  8.000e+000
 2.747e+002  8.924e+001  8.000e+000
 2.595e+002  8.959e+001  8.000e+000
 2.442e+002  8.992e+001  8.000e+000
 2.290e+002  9.022e+001  8.000e+000
 2.137e+002  9.050e+001  8.000e+000
 1.984e+002  9.073e+001  8.000e+000
 1.832e+002  9.091e+001  8.000e+000
 1.679e+002  9.104e+001  8.000e+000
 1.526e+002  9.111e+001  8.000e+000
 1.374e+002  9.110e+001  8.000e+000
 1.221e+002  9.102e+001  8.000e+000
 1.069e+002  9.089e+001  8.000e+000
 9.159e+001  9.070e+001  8.000e+000
 7.632e+001  9.047e+001  8.000e+000
 6.106e+001  9.020e+001  8.000e+000
 4.579e+001  8.990e+001  8.000e+000
 3.053e+001  8.957e+001  8.000e+000
 1.526e+001  8.923e+001  8.000e+000
 0.000e+000  8.889e+001  8.000e+000
 2.900e+002  7.778e+001  8.000e+000
 2.747e+002  7.849e+001  8.000e+000
 2.595e+002  7.918e+001  8.000e+000
 2.442e+002  7.984e+001  8.000e+000
 2.290e+002  8.045e+001  8.000e+000
 2.137e+002  8.099e+001  8.000e+000
 1.984e+002  8.146e+001  8.000e+000
 1.832e+002  8.183e+001  8.000e+000
 1.679e+002  8.209e+001  8.000e+000
 1.527e+002  8.221e+001  8.000e+000
 1.374e+002  8.220e+001  8.000e+000
 1.221e+002  8.205e+001  8.000e+000
 1.069e+002  8.178e+001  8.000e+000
 9.160e+001  8.140e+001  8.000e+000
 7.633e+001  8.094e+001  8.000e+000
 6.106e+001  8.040e+001  8.000e+000
 4.580e+001  7.979e+001  8.000e+000
 3.053e+001  7.915e+001  8.000e+000
 1.527e+001  7.847e+001  8.000e+000
 0.000e+000  7.778e+001  8.000e+000
 2.900e+002  6.667e+001  8.000e+000
 2.747e+002  6.773e+001  8.000e+000
 2.595e+002  6.877e+001  8.000e+000
 2.442e+002  6.976e+001  8.000e+000
 2.290e+002  7.067e+001  8.000e+000
 2.137e+002  7.149e+001  8.000e+000
 1.984e+002  7.219e+001  8.000e+000
 1.832e+002  7.274e+001  8.000e+000
 1.679e+002  7.313e+001  8.000e+000
 1.527e+002  7.332e+001  8.000e+000
 1.374e+002  7.330e+001  8.000e+000
 1.221e+002  7.307e+001  8.000e+000
 1.069e+002  7.267e+001  8.000e+000
 9.160e+001  7.211e+001  8.000e+000
 7.634e+001  7.141e+001  8.000e+000
 6.107e+001  7.059e+001  8.000e+000
 4.580e+001  6.969e+001  8.000e+000
 3.054e+001  6.872e+001  8.000e+000
 1.527e+001  6.770e+001  8.000e+000
 0.000e+000  6.667e+001  8.000e+000
 2.900e+002  5.556e+001  8.000e+000
 2.747e+002  5.697e+001  8.000e+000
 2.595e+002  5.835e+001  8.000e+000
 2.442e+002  5.967e+001  8.000e+000
 2.290e+002  6.090e+001  8.000e+000
 2.137e+002  6.199e+001  8.000e+000
 1.985e+002  6.292e+001  8.000e+000
 1.832e+002  6.366e+001  8.000e+000
 1.679e+002  6.417e+001  8.000e+000
 1.527e+002  6.443e+001  8.000e+000
 1.374e+002  6.440e+001  8.000e+000
 1.221e+002  6.410e+001  8.000e+000
 1.069e+002  6.356e+001  8.000e+000
 9.161e+001  6.281e+001  8.000e+000
 7.635e+001  6.187e+001  8.000e+000
 6.108e+001  6.079e+001  8.000e+000
 4.581e+001  5.959e+001  8.000e+000
 3.054e+001  5.829e+001  8.000e+000
 1.527e+001  5.694e+001  8.000e+000
 0.000e+000  5.556e+001  8.000e+000
 2.900e+002  4.444e+001  8.000e+000
 2.747e+002  4.621e+001  8.000e+000
 2.595e+002  4.794e+001  8.000e+000
 2.442e+002  4.959e+001  8.000e+000
 2.290e+002  5.112e+001  8.000e+000
 2.137e+002  5.249e+001  8.000e+000
 1.985e+002  5.365e+001  8.000e+000
 1.832e+002  5.457e+001  8.000e+000
 1.679e+002  5.522e+001  8.000e+000
 1.527e+002  5.554e+001  8.000e+000
 1.374e+002  5.550e+001  8.000e+000
 1.222e+002  5.512e+001  8.000e+000
 1.069e+002  5.445e+001  8.000e+000
 9.162e+001  5.351e+001  8.000e+000
 7.635e+001  5.234e+001  8.000e+000
 6.108e+001  5.099e+001  8.000e+000
 4.581e+001  4.948e+001  8.000e+000
 3.054e+001  4.787e+001  8.000e+000
 1.527e+001  4.617e+001  8.000e+000
 0.000e+000  4.444e+001  8.000e+000
 2.900e+002  3.333e+001  8.000e+000
 2.747e+002  3.546e+001  8.000e+000
 2.595e+002  3.753e+001  8.000e+000
 2.442e+002  3.951e+001  8.000e+000
 2.290e+002  4.134e+001  8.000e+000
 2.137e+002  4.298e+001  8.000e+000
 1.985e+002  4.438e+001  8.000e+000
 1.832e+002  4.549e+001  8.000e+000
 1.680e+002  4.626e+001  8.000e+000
 1.527e+002  4.664e+001  8.000e+000
 1.374e+002  4.660e+001  8.000e+000
 1.222e+002  4.615e+001  8.000e+000
 1.069e+002  4.534e+001  8.000e+000
 9.163e+001  4.421e+001  8.000e+000
 7.636e+001  4.281e+001  8.000e+000
 6.109e+001  4.119e+001  8.000e+000
 4.582e+001  3.938e+001  8.000e+000
 3.055e+001  3.744e+001  8.000e+000
 1.527e+001  3.541e+001  8.000e+000
 0.000e+000  3.333e+001  8.000e+000
 2.900e+002  2.222e+001  8.000e+000
 2.747e+002  2.470e+001  8.000e+000
 2.595e+002  2.712e+001  8.000e+000
 2.442e+002  2.943e+001  8.000e+000
 2.290e+002  3.157e+001  8.000e+000
 2.137e+002  3.348e+001  8.000e+000
 1.985e+002  3.511e+001  8.000e+000
 1.832e+002  3.640e+001  8.000e+000
 1.680e+002  3.730e+001  8.000e+000
 1.527e+002  3.775e+001  8.000e+000
 1.374e+002  3.770e+001  8.000e+000
 1.222e+002  3.717e+001  8.000e+000
 1.069e+002  3.623e+001  8.000e+000
 9.164e+001  3.491e+001  8.000e+000
 7.637e+001  3.328e+001  8.000e+000
 6.110e+001  3.138e+001  8.000e+000
 4.582e+001  2.928e+001  8.000e+000
 3.055e+001  2.701e+001  8.000e+000
 1.527e+001  2.464e+001  8.000e+000
 0.000e+000  2.222e+001  8.000e+000
 2.900e+002  1.111e+001  8.000e+000
 2.748e+002  1.394e+001  8.000e+000
 2.595e+002  1.671e+001  8.000e+000
 2.442e+002  1.935e+001  8.000e+000
 2.290e+002  2.179e+001  8.000e+000
 2.137e+002  2.398e+001  8.000e+000
 1.985e+002  2.584e+001  8.000e+000
 1.832e+002  2.732e+001  8.000e+000
 1.680e+002  2.835e+001  8.000e+000
 1.527e+002  2.886e+001  8.000e+000
 1.375e+002  2.880e+001  8.000e+000
 1.222e+002  2.820e+001  8.000e+000
 1.069e+002  2.712e+001  8.000e+000
 9.165e+001  2.561e+001  8.000e+000
 7.637e+001  2.375e+001  8.000e+000
 6.110e+001  2.158e+001  8.000e+000
 4.583e+001  1.918e+001  8.000e+000
 3.055e+001  1.659e+001  8.000e+000
 1.528e+001  1.388e+001  8.000e+000
 0.000e+000  1.111e+001  8.000e+000
 2.900e+002  0.000e+000  8.000e+000
 2.748e+002  3.185e+000  8.000e+000
 2.595e+002  6.298e+000  8.000e+000
 2.443e+002  9.265e+000  8.000e+000
 2.290e+002  1.202e+001  8.000e+000
 2.138e+002  1.448e+001  8.000e+000
 1.985e+002  1.657e+001  8.000e+000
 1.832e+002  1.823e+001  8.000e+000
 1.680e+002  1.939e+001  8.000e+000
 1.527e+002  1.996e+001  8.000e+000
 1.375e+002  1.990e+001  8.000e+000
 1.222e+002  1.922e+001  8.000e+000
 1.069e+002  1.801e+001  8.000e+000
 9.166e+001  1.632e+001  8.000e+000
 7.638e+001  1.422e+001  8.000e+000
 6.111e+001  1.178e+001  8.000e+000
 4.583e+001  9.073e+000  8.000e+000
 3.056e+001  6.161e+000  8.000e+000
 1.528e+001  3.115e+000  8.000e+000
 0.000e+000  0.000e+000  8.000e+000
-8.707e+000  1.000e+002  8.000e+000
-1.741e+001  1.000e+002  8.000e+000
-2.612e+001  1.000e+002  8.000e+000
-3.483e+001  1.000e+002  8.000e+000
-4.353e+001  1.000e+002  8.000e+000
-5.224e+001  1.000e+002  8.000e+000
-6.095e+001  1.000e+002  8.000e+000
-6.966e+001  1.000e+002  8.000e+000
-7.836e+001  1.000e+002  8.000e+000
-8.707e+001  1.000e+002  8.000e+000
-9.578e+001  1.000e+002  8.000e+000
-1.045e+002  1.000e+002  8.000e+000
-1.132e+002  1.000e+002  8.000e+000
-1.219e+002  1.000e+002  8.000e+000
-1.306e+002  1.000e+002  8.000e+000
-1.393e+002  1.000e+002  8.000e+000
-1.480e+002  1.000e+002  8.000e+000
-1.567e+002  1.000e+002  8.000e+000
-1.654e+002  1.000e+002  8.000e+000
-1.741e+002  1.000e+002  8.000e+000
-1.828e+002  1.000e+002  8.000e+000
-1.916e+002  1.000e+002  8.000e+000
-2.003e+002  1.000e+002  8.000e+000
-2.090e+002  1.000e+002  8.000e+000
-2.177e+002  1.000e+002  8.000e+000
-2.264e+002  1.000e+002  8.000e+000
-2.351e+002  1.000e+002  8.000e+000
-2.438e+002  1.000e+002  8.000e+000
-2.525e+002  1.000e+002  8.000e+000
 0.000e+000  8.947e+001  8.000e+000
-8.707e+000  8.947e+001  8.000e+000
-1.741e+001  8.947e+001  8.000e+000
-2.612e+001  8.947e+001  8.000e+000
-3.483e+001  8.947e+001  8.000e+000
-4.353e+001  8.947e+001  8.000e+000
-5.224e+001  8.947e+001  8.000e+000
-6.095e+001  8.947e+001  8.000e+000
-6.966e+001  8.947e+001  8.000e+000
-7.836e+001  8.947e+001  8.000e+000
-8.707e+001  8.947e+001  8.000e+000
-9.578e+001  8.947e+001  8.000e+000
-1.045e+002  8.947e+001  8.000e+000
-1.132e+002  8.947e+001  8.000e+000
-1.219e+002  8.947e+001  8.000e+000
-1.306e+002  8.947e+001  8.000e+000
-1.393e+002  8.947e+001  8.000e+000
-1.480e+002  8.947e+001  8.000e+000
-1.567e+002  8.947e+001  8.000e+000
-1.654e+002  8.947e+001  8.000e+000
-1.741e+002  8.947e+001  8.000e+000
-1.828e+002  8.947e+001  8.000e+000
-1.916e+002  8.947e+001  8.000e+000
-2.003e+002  8.947e+001  8.000e+000
-2.090e+002  8.947e+001  8.000e+000
-2.177e+002  8.947e+001  8.000e+000
-2.264e+002  8.947e+001  8.000e+000
-2.351e+002  8.947e+001  8.000e+000
-2.438e+002  8.947e+001  8.000e+000
-2.525e+002  8.947e+001  8.000e+000
 0.000e+000  7.895e+001  8.000e+000
-8.707e+000  7.895e+001  8.000e+000
-1.741e+001  7.895e+001  8.000e+000
-2.612e+001  7.895e+001  8.000e+000
-3.483e+001  7.895e+001  8.000e+000
-4.353e+001  7.895e+001  8.000e+000
-5.224e+001  7.895e+001  8.000e+000
-6.095e+001  7.895e+001  8.000e+000
-6.966e+001  7.895e+001  8.000e+000
-7.836e+001  7.895e+001  8.000e+000
-8.707e+001  7.895e+001  8.000e+000
-9.578e+001  7.895e+001  8.000e+000
-1.045e+002  7.895e+001  8.000e+000
-1.132e+002  7.895e+001  8.000e+000
-1.219e+002  7.895e+001  8.000e+000
-1.306e+002  7.895e+001  8.000e+000
-1.393e+002  7.895e+001  8.000e+000
-1.480e+002  7.895e+001  8.000e+000
-1.567e+002  7.895e+001  8.000e+000
-1.654e+002  7.895e+001  8.000e+000
-1.741e+002  7.895e+001  8.000e+000
-1.828e+002  7.895e+001  8.000e+000
-1.916e+002  7.895e+001  8.000e+000
-2.003e+002  7.895e+001  8.000e+000
-2.090e+002  7.895e+001  8.000e+000
-2.177e+002  7.895e+001  8.000e+000
-2.264e+002  7.895e+001  8.000e+000
-2.351e+002  7.895e+001  8.000e+000
-2.438e+002  7.895e+001  8.000e+000
-2.525e+002  7.895e+001  8.000e+000
 0.000e+000  6.842e+001  8.000e+000
-8.707e+000  6.842e+001  8.000e+000
-1.741e+001  6.842e+001  8.000e+000
-2.612e+001  6.842e+001  8.000e+000
-3.483e+001  6.842e+001  8.000e+000
-4.353e+001  6.842e+001  8.000e+000
-5.224e+001  6.842e+001  8.000e+000
-6.095e+001  6.842e+001  8.000e+000
-6.966e+001  6.842e+001  8.000e+000
-7.836e+001  6.842e+001  8.000e+000
-8.707e+001  6.842e+001  8.000e+000
-9.578e+001  6.842e+001  8.000e+000
-1.045e+002  6.842e+001  8.000e+000
-1.132e+002  6.842e+001  8.000e+000
-1.219e+002  6.842e+001  8.000e+000
-1.306e+002  6.842e+001  8.000e+000
-1.393e+002  6.842e+001  8.000e+000
-1.480e+002  6.842e+001  8.000e+000
-1.567e+002  6.842e+001  8.000e+000
-1.654e+002  6.842e+001  8.000e+000
-1.741e+002  6.842e+001  8.000e+000
-1.828e+002  6.842e+001  8.000e+000
-1.916e+002  6.842e+001  8.000e+000
-2.003e+002  6.842e+001  8.000e+000
-2.090e+002  6.842e+001  8.000e+000
-2.177e+002  6.842e+001  8.000e+000
-2.264e+002  6.842e+001  8.000e+000
-2.351e+002  6.842e+001  8.000e+000
-2.438e+002  6.842e+001  8.000e+000
-2.525e+002  6.842e+001  8.000e+000
 0.000e+000  5.789e+001  8.000e+000
-8.707e+000  5.789e+001  8.000e+000
-1.741e+001  5.789e+001  8.000e+000
-2.612e+001  5.789e+001  8.000e+000
-3.483e+001  5.789e+001  8.000e+000
-4.353e+001  5.789e+001  8.000e+000
-5.224e+001  5.789e+001  8.000e+000
-6.095e+001  5.789e+001  8.000e+000
-6.966e+001  5.789e+001  8.000e+000
-7.836e+001  5.789e+001  8.000e+000
-8.707e+001  5.789e+001  8.000e+000
-9.578e+001  5.789e+001  8.000e+000
-1.045e+002  5.789e+001  8.000e+000
-1.132e+002  5.789e+001  8.000e+000
-1.219e+002  5.789e+001  8.000e+000
-1.306e+002  5.789e+001  8.000e+000
-1.393e+002  5.789e+001  8.000e+000
-1.480e+002  5.789e+001  8.000e+000
-1.567e+002  5.789e+001  8.000e+000
-1.654e+002  5.789e+001  8.000e+000
-1.741e+002  5.789e+001  8.000e+000
-1.828e+002  5.789e+001  8.000e+000
-1.916e+002  5.789e+001  8.000e+000
-2.003e+002  5.789e+001  8.000e+000
-2.090e+002  5.789e+001  8.000e+000
-2.177e+002  5.789e+001  8.000e+000
-2.264e+002  5.789e+001  8.000e+000
-2.351e+002  5.789e+001  8.000e+000
-2.438e+002  5.789e+001  8.000e+000
-2.525e+002  5.789e+001  8.000e+000
 0.000e+000  4.737e+001  8.000e+000
-8.707e+000  4.737e+001  8.000e+000
-1.741e+001  4.737e+001  8.000e+000
-2.612e+001  4.737e+001  8.000e+000
-3.483e+001  4.737e+001  8.000e+000
-4.353e+001  4.737e+001  8.000e+000
-5.224e+001  4.737e+001  8.000e+000
-6.095e+001  4.737e+001  8.000e+000
-6.966e+001  4.737e+001  8.000e+000
-7.836e+001  4.737e+001  8.000e+000
-8.707e+001  4.737e+001  8.000e+000
-9.578e+001  4.737e+001  8.000e+000
-1.045e+002  4.737e+001  8.000e+000
-1.132e+002  4.737e+001  8.000e+000
-1.219e+002  4.737e+001  8.000e+000
-1.306e+002  4.737e+001  8.000e+000
-1.393e+002  4.737e+001  8.000e+000
-1.480e+002  4.737e+001  8.000e+000
-1.567e+002  4.737e+001  8.000e+000
-1.654e+002  4.737e+001  8.000e+000
-1.741e+002  4.737e+001  8.000e+000
-1.828e+002  4.737e+001  8.000e+000
-1.916e+002  4.737e+001  8.000e+000
-2.003e+002  4.737e+001  8.000e+000
-2.090e+002  4.737e+001  8.000e+000
-2.177e+002  4.737e+001  8.000e+000
-2.264e+002  4.737e+001  8.000e+000
-2.351e+002  4.737e+001  8.000e+000
-2.438e+002  4.737e+001  8.000e+000
-2.525e+002  4.737e+001  8.000e+000
 0.000e+000  3.684e+001  8.000e+000
-8.707e+000  3.684e+001  8.000e+000
-1.741e+001  3.684e+001  8.000e+000
-2.612e+001  3.684e+001  8.000e+000
-3.483e+001  3.684e+001  8.000e+000
-4.353e+001  3.684e+001  8.000e+000
-5.224e+001  3.684e+001  8.000e+000
-6.095e+001  3.684e+001  8.000e+000
-6.966e+001  3.684e+001  8.000e+000
-7.836e+001  3.684e+001  8.000e+000
-8.707e+001  3.684e+001  8.000e+000
-9.578e+001  3.684e+001  8.000e+000
-1.045e+002  3.684e+001  8.000e+000
-1.132e+002  3.684e+001  8.000e+000
-1.219e+002  3.684e+001  8.000e+000
-1.306e+002  3.684e+001  8.000e+000
-1.393e+002  3.684e+001  8.000e+000
-1.480e+002  3.684e+001  8.000e+000
-1.567e+002  3.684e+001  8.000e+000
-1.654e+002  3.684e+001  8.000e+000
-1.741e+002  3.684e+001  8.000e+000
-1.828e+002  3.684e+001  8.000e+000
-1.916e+002  3.684e+001  8.000e+000
-2.003e+002  3.684e+001  8.000e+000
-2.090e+002  3.684e+001  8.000e+000
-2.177e+002  3.684e+001  8.000e+000
-2.264e+002  3.684e+001  8.000e+000
-2.351e+002  3.684e+001  8.000e+000
-2.438e+002  3.684e+001  8.000e+000
-2.525e+002  3.684e+001  8.000e+000
 0.000e+000  2.632e+001  8.000e+000
-8.707e+000  2.632e+001  8.000e+000
-1.741e+001  2.632e+001  8.000e+000
-2.612e+001  2.632e+001  8.000e+000
-3.483e+001  2.632e+001  8.000e+000
-4.353e+001  2.632e+001  8.000e+000
-5.224e+001  2.632e+001  8.000e+000
-6.095e+001  2.632e+001  8.000e+000
-6.966e+001  2.632e+001  8.000e+000
-7.836e+001  2.632e+001  8.000e+000
-8.707e+001  2.632e+001  8.000e+000
-9.578e+001  2.632e+001  8.000e+000
-1.045e+002  2.632e+001  8.000e+000
-1.132e+002  2.632e+001  8.000e+000
-1.219e+002  2.632e+001  8.000e+000
-1.306e+002  2.632e+001  8.000e+000
-1.393e+002  2.632e+001  8.000e+000
-1.480e+002  2.632e+001  8.000e+000
-1.567e+002  2.632e+001  8.000e+000
-1.654e+002  2.632e+001  8.000e+000
-1.741e+002  2.632e+001  8.000e+000
-1.828e+002  2.632e+001  8.000e+000
-1.916e+002  2.632e+001  8.000e+000
-2.003e+002  2.632e+001  8.000e+000
-2.090e+002  2.632e+001  8.000e+000
-2.177e+002  2.632e+001  8.000e+000
-2.264e+002  2.632e+001  8.000e+000
-2.351e+002  2.632e+001  8.000e+000
-2.438e+002  2.632e+001  8.000e+000
-2.525e+002  2.632e+001  8.000e+000
 0.000e+000  1.579e+001  8.000e+000
-8.707e+000  1.579e+001  8.000e+000
-1.741e+001  1.579e+001  8.000e+000
-2.612e+001  1.579e+001  8.000e+000
-3.483e+001  1.579e+001  8.000e+000
-4.353e+001  1.579e+001  8.000e+000
-5.224e+001  1.579e+001  8.000e+000
-6.095e+001  1.579e+001  8.000e+000
-6.966e+001  1.579e+001  8.000e+000
-7.836e+001  1.579e+001  8.000e+000
-8.707e+001  1.579e+001  8.000e+000
-9.578e+001  1.579e+001  8.000e+000
-1.045e+002  1.579e+001  8.000e+000
-1.132e+002  1.579e+001  8.000e+000
-1.219e+002  1.579e+001  8.000e+000
-1.306e+002  1.579e+001  8.000e+000
-1.393e+002  1.579e+001  8.000e+000
-1.480e+002  1.579e+001  8.000e+000
-1.567e+002  1.579e+001  8.000e+000
-1.654e+002  1.579e+001  8.000e+000
-1.741e+002  1.579e+001  8.000e+000
-1.828e+002  1.579e+001  8.000e+000
-1.916e+002  1.579e+001  8.000e+000
-2.003e+002  1.579e+001  8.000e+000
-2.090e+002  1.579e+001  8.000e+000
-2.177e+002  1.579e+001  8.000e+000
-2.264e+002  1.579e+001  8.000e+000
-2.351e+002  1.579e+001  8.000e+000
-2.438e+002  1.579e+001  8.000e+000
-2.525e+002  1.579e+001  8.000e+000
 0.000e+000  5.263e+000  8.000e+000
-8.707e+000  5.263e+000  8.000e+000
-1.741e+001  5.263e+000  8.000e+000
-2.612e+001  5.263e+000  8.000e+000
-3.483e+001  5.263e+000  8.000e+000
-4.353e+001  5.263e+000  8.000e+000
-5.224e+001  5.263e+000  8.000e+000
-6.095e+001  5.263e+000  8.000e+000
-6.966e+001  5.263e+000  8.000e+000
-7.836e+001  5.263e+000  8.000e+000
-8.707e+001  5.263e+000  8.000e+000
-9.578e+001  5.263e+000  8.000e+000
-1.045e+002  5.263e+000  8.000e+000
-1.132e+002  5.263e+000  8.000e+000
-1.219e+002  5.263e+000  8.000e+000
-1.306e+002  5.263e+000  8.000e+000
-1.393e+002  5.263e+000  8.000e+000
-1.480e+002  5.263e+000  8.000e+000
-1.567e+002  5.263e+000  8.000e+000
-1.654e+002  5.263e+000  8.000e+000
-1.741e+002  5.263e+000  8.000e+000
-1.828e+002  5.263e+000  8.000e+000
-1.916e+002  5.263e+000  8.000e+000
-2.003e+002  5.263e+000  8.000e+000
-2.090e+002  5.263e+000  8.000e+000
-2.177e+002  5.263e+000  8.000e+000
-2.264e+002  5.263e+000  8.000e+000
-2.351e+002  5.263e+000  8.000e+000
-2.438e+002  5.263e+000  8.000e+000
-2.525e+002  5.263e+000  8.000e+000
 0.000e+000 -5.263e+000  8.000e+000
-8.707e+000 -5.263e+000  8.000e+000
-1.741e+001 -5.263e+000  8.000e+000
-2.612e+001 -5.263e+000  8.000e+000
-3.483e+001 -5.263e+000  8.000e+000
-4.353e+001 -5.263e+000  8.000e+000
-5.224e+001 -5.263e+000  8.000e+000
-6.095e+001 -5.263e+000  8.000e+000
-6.966e+001 -5.263e+000  8.000e+000
-7.836e+001 -5.263e+000  8.000e+000
-8.707e+001 -5.263e+000  8.000e+000
-9.578e+001 -5.263e+000  8.000e+000
-1.045e+002 -5.263e+000  8.000e+000
-1.132e+002 -5.263e+000  8.000e+000
-1.219e+002 -5.263e+000  8.000e+000
-1.306e+002 -5.263e+000  8.000e+000
-1.393e+002 -5.263e+000  8.000e+000
-1.480e+002 -5.263e+000  8.000e+000
-1.567e+002 -5.263e+000  8.000e+000
-1.654e+002 -5.263e+000  8.000e+000
-1.741e+002 -5.263e+000  8.000e+000
-1.828e+002 -5.263e+000  8.000e+000
-1.916e+002 -5.263e+000  8.000e+000
-2.003e+002 -5.263e+000  8.000e+000
-2.090e+002 -5.263e+000  8.000e+000
-2.177e+002 -5.263e+000  8.000e+000
-2.264e+002 -5.263e+000  8.000e+000
-2.351e+002 -5.263e+000  8.000e+000
-2.438e+002 -5.263e+000  8.000e+000
-2.525e+002 -5.263e+000  8.000e+000
 0.000e+000 -1.579e+001  8.000e+000
-8.707e+000 -1.579e+001  8.000e+000
-1.741e+001 -1.579e+001  8.000e+000
-2.612e+001 -1.579e+001  8.000e+000
-3.483e+001 -1.579e+001  8.000e+000
-4.353e+001 -1.579e+001  8.000e+000
-5.224e+001 -1.579e+001  8.000e+000
-6.095e+001 -1.579e+001  8.000e+000
-6.966e+001 -1.579e+001  8.000e+000
-7.836e+001 -1.579e+001  8.000e+000
-8.707e+001 -1.579e+001  8.000e+000
-9.578e+001 -1.579e+001  8.000e+000
-1.045e+002 -1.579e+001  8.000e+000
-1.132e+002 -1.579e+001  8.000e+000
-1.219e+002 -1.579e+001  8.000e+000
-1.306e+002 -1.579e+001  8.000e+000
-1.393e+002 -1.579e+001  8.000e+000
-1.480e+002 -1.579e+001  8.000e+000
-1.567e+002 -1.579e+001  8.000e+000
-1.654e+002 -1.579e+001  8.000e+000
-1.741e+002 -1.579e+001  8.000e+000
-1.828e+002 -1.579e+001  8.000e+000
-1.916e+002 -1.579e+001  8.000e+000
-2.003e+002 -1.579e+001  8.000e+000
-2.090e+002 -1.579e+001  8.000e+000
-2.177e+002 -1.579e+001  8.000e+000
-2.264e+002 -1.579e+001  8.000e+000
-2.351e+002 -1.579e+001  8.000e+000
-2.438e+002 -1.579e+001  8.000e+000
-2.525e+002 -1.579e+001  8.000e+000
 0.000e+000 -2.632e+001  8.000e+000
-8.707e+000 -2.632e+001  8.000e+000
-1.741e+001 -2.632e+001  8.000e+000
-2.612e+001 -2.632e+001  8.000e+000
-3.483e+001 -2.632e+001  8.000e+000
-4.353e+001 -2.632e+001  8.000e+000
-5.224e+001 -2.632e+001  8.000e+000
-6.095e+001 -2.632e+001  8.000e+000
-6.966e+001 -2.632e+001  8.000e+000
-7.836e+001 -2.632e+001  8.000e+000
-8.707e+001 -2.632e+001  8.000e+000
-9.578e+001 -2.632e+001  8.000e+000
-1.045e+002 -2.632e+001  8.000e+000
-1.132e+002 -2.632e+001  8.000e+000
-1.219e+002 -2.632e+001  8.000e+000
-1.306e+002 -2.632e+001  8.000e+000
-1.393e+002 -2.632e+001  8.000e+000
-1.480e+002 -2.632e+001  8.000e+000
-1.567e+002 -2.632e+001  8.000e+000
-1.654e+002 -2.632e+001  8.000e+000
-1.741e+002 -2.632e+001  8.000e+000
-1.828e+002 -2.632e+001  8.000e+000
-1.916e+002 -2.632e+001  8.000e+000
-2.003e+002 -2.632e+001  8.000e+000
-2.090e+002 -2.632e+001  8.000e+000
-2.177e+002 -2.632e+001  8.000e+000
-2.264e+002 -2.632e+001  8.000e+000
-2.351e+002 -2.632e+001  8.000e+000
-2.438e+002 -2.632e+001  8.000e+000
-2.525e+002 -2.632e+001  8.000e+000
 0.000e+000 -3.684e+001  8.000e+000
-8.707e+000 -3.684e+001  8.000e+000
-1.741e+001 -3.684e+001  8.000e+000
-2.612e+001 -3.684e+001  8.000e+000
-3.483e+001 -3.684e+001  8.000e+000
-4.353e+001 -3.684e+001  8.000e+000
-5.224e+001 -3.684e+001  8.000e+000
-6.095e+001 -3.684e+001  8.000e+000
-6.966e+001 -3.684e+001  8.000e+000
-7.836e+001 -3.684e+001  8.000e+000
-8.707e+001 -3.684e+001  8.000e+000
-9.578e+001 -3.684e+001  8.000e+000
-1.045e+002 -3.684e+001  8.000e+000
-1.132e+002 -3.684e+001  8.000e+000
-1.219e+002 -3.684e+001  8.000e+000
-1.306e+002 -3.684e+001  8.000e+000
-1.393e+002 -3.684e+001  8.000e+000
-1.480e+002 -3.684e+001  8.000e+000
-1.567e+002 -3.684e+001  8.000e+000
-1.654e+002 -3.684e+001  8.000e+000
-1.741e+002 -3.684e+001  8.000e+000
-1.828e+002 -3.684e+001  8.000e+000
-1.916e+002 -3.684e+001  8.000e+000
-2.003e+002 -3.684e+001  8.000e+000
-2.090e+002 -3.684e+001  8.000e+000
-2.177e+002 -3.684e+001  8.000e+000
-2.264e+002 -3.684e+001  8.000e+000
-2.351e+002 -3.684e+001  8.000e+000
-2.438e+002 -3.684e+001  8.000e+000
-2.525e+002 -3.684e+001  8.000e+000
 0.000e+000 -4.737e+001  8.000e+000
-8.707e+000 -4.737e+001  8.000e+000
-1.741e+001 -4.737e+001  8.000e+000
-2.612e+001 -4.737e+001  8.000e+000
-3.483e+001 -4.737e+001  8.000e+000
-4.353e+001 -4.737e+001  8.000e+000
-5.224e+001 -4.737e+001  8.000e+000
-6.095e+001 -4.737e+001  8.000e+000
-6.966e+001 -4.737e+001  8.000e+000
-7.836e+001 -4.737e+001  8.000e+000
-8.707e+001 -4.737e+001  8.000e+000
-9.578e+001 -4.737e+001  8.000e+000