TITLE = "NODEELEMENT"
VARIABLES = "X", "Y", "Z"
ZONE N=     180, E=     162, F=FEPOINT, ET=QUADRILATERAL
 2.900e+002  0.000e+000  0.000e+000
 2.900e+002  0.000e+000  2.000e+000
 2.900e+002  0.000e+000  4.000e+000
 2.900e+002  0.000e+000  6.000e+000
 2.900e+002  0.000e+000  8.000e+000
 2.900e+002  0.000e+000  9.600e+000
 2.900e+002  0.000e+000  1.120e+001
 2.900e+002  0.000e+000  1.280e+001
 2.900e+002  0.000e+000  1.440e+001
 2.900e+002  0.000e+000  1.600e+001
 2.578e+002  6.636e+000  0.000e+000
 2.578e+002  6.636e+000  2.000e+000
 2.578e+002  6.636e+000  4.000e+000
 2.578e+002  6.636e+000  6.000e+000
 2.578e+002  6.636e+000  8.000e+000
 2.578e+002  6.636e+000  9.600e+000
 2.578e+002  6.636e+000  1.120e+001
 2.578e+002  6.636e+000  1.280e+001
 2.578e+002  6.636e+000  1.440e+001
 2.578e+002  6.636e+000  1.600e+001
 2.256e+002  1.259e+001  0.000e+000
 2.256e+002  1.259e+001  2.000e+000
 2.256e+002  1.259e+001  4.000e+000
 2.256e+002  1.259e+001  6.000e+000
 2.256e+002  1.259e+001  8.000e+000
 2.256e+002  1.259e+001  9.600e+000
 2.256e+002  1.259e+001  1.120e+001
 2.256e+002  1.259e+001  1.280e+001
 2.256e+002  1.259e+001  1.440e+001
 2.256e+002  1.259e+001  1.600e+001
 1.934e+002  1.718e+001  0.000e+000
 1.934e+002  1.718e+001  2.000e+000
 1.934e+002  1.718e+001  4.000e+000
 1.934e+002  1.718e+001  6.000e+000
 1.934e+002  1.718e+001  8.000e+000
 1.934e+002  1.718e+001  9.600e+000
 1.934e+002  1.718e+001  1.120e+001
 1.934e+002  1.718e+001  1.280e+001
 1.934e+002  1.718e+001  1.440e+001
 1.934e+002  1.718e+001  1.600e+001
 1.612e+002  1.972e+001  0.000e+000
 1.612e+002  1.972e+001  2.000e+000
 1.612e+002  1.972e+001  4.000e+000
 1.612e+002  1.972e+001  6.000e+000
 1.612e+002  1.972e+001  8.000e+000
 1.612e+002  1.972e+001  9.600e+000
 1.612e+002  1.972e+001  1.120e+001
 1.612e+002  1.972e+001  1.280e+001
 1.612e+002  1.972e+001  1.440e+001
 1.612e+002  1.972e+001  1.600e+001
 1.290e+002  1.959e+001  0.000e+000
 1.290e+002  1.959e+001  2.000e+000
 1.290e+002  1.959e+001  4.000e+000
 1.290e+002  1.959e+001  6.000e+000
 1.290e+002  1.959e+001  8.000e+000
 1.290e+002  1.959e+001  9.600e+000
 1.290e+002  1.959e+001  1.120e+001
 1.290e+002  1.959e+001  1.280e+001
 1.290e+002  1.959e+001  1.440e+001
 1.290e+002  1.959e+001  1.600e+001
 9.675e+001  1.693e+001  0.000e+000
 9.675e+001  1.693e+001  2.000e+000
 9.675e+001  1.693e+001  4.000e+000
 9.675e+001  1.693e+001  6.000e+000
 9.675e+001  1.693e+001  8.000e+000
 9.675e+001  1.693e+001  9.600e+000
 9.675e+001  1.693e+001  1.120e+001
 9.675e+001  1.693e+001  1.280e+001
 9.675e+001  1.693e+001  1.440e+001
 9.675e+001  1.693e+001  1.600e+001
 6.450e+001  1.235e+001  0.000e+000
 6.450e+001  1.235e+001  2.000e+000
 6.450e+001  1.235e+001  4.000e+000
 6.450e+001  1.235e+001  6.000e+000
 6.450e+001  1.235e+001  8.000e+000
 6.450e+001  1.235e+001  9.600e+000
 6.450e+001  1.235e+001  1.120e+001
 6.450e+001  1.235e+001  1.280e+001
 6.450e+001  1.235e+001  1.440e+001
 6.450e+001  1.235e+001  1.600e+001
 3.225e+001  6.493e+000  0.000e+000
 3.225e+001  6.493e+000  2.000e+000
 3.225e+001  6.493e+000  4.000e+000
 3.225e+001  6.493e+000  6.000e+000
 3.225e+001  6.493e+000  8.000e+000
 3.225e+001  6.493e+000  9.600e+000
 3.225e+001  6.493e+000  1.120e+001
 3.225e+001  6.493e+000  1.280e+001
 3.225e+001  6.493e+000  1.440e+001
 3.225e+001  6.493e+000  1.600e+001
 0.000e+000 -1.735e-018  0.000e+000
 0.000e+000 -1.735e-018  2.000e+000
 0.000e+000 -1.735e-018  4.000e+000
 0.000e+000 -1.735e-018  6.000e+000
 0.000e+000 -1.735e-018  8.000e+000
 0.000e+000 -1.735e-018  9.600e+000
 0.000e+000 -1.735e-018  1.120e+001
 0.000e+000 -1.735e-018  1.280e+001
 0.000e+000 -1.735e-018  1.440e+001
 0.000e+000 -1.735e-018  1.600e+001
 3.225e+001 -6.493e+000  0.000e+000
 3.225e+001 -6.493e+000  2.000e+000
 3.225e+001 -6.493e+000  4.000e+000
 3.225e+001 -6.493e+000  6.000e+000
 3.225e+001 -6.493e+000  8.000e+000
 3.225e+001 -6.493e+000  9.600e+000
 3.225e+001 -6.493e+000  1.120e+001
 3.225e+001 -6.493e+000  1.280e+001
 3.225e+001 -6.493e+000  1.440e+001
 3.225e+001 -6.493e+000  1.600e+001
 6.450e+001 -1.235e+001  0.000e+000
 6.450e+001 -1.235e+001  2.000e+000
 6.450e+001 -1.235e+001  4.000e+000
 6.450e+001 -1.235e+001  6.000e+000
 6.450e+001 -1.235e+001  8.000e+000
 6.450e+001 -1.235e+001  9.600e+000
 6.450e+001 -1.235e+001  1.120e+001
 6.450e+001 -1.235e+001  1.280e+001
 6.450e+001 -1.235e+001  1.440e+001
 6.450e+001 -1.235e+001  1.600e+001
 9.675e+001 -1.693e+001  0.000e+000
 9.675e+001 -1.693e+001  2.000e+000
 9.675e+001 -1.693e+001  4.000e+000
 9.675e+001 -1.693e+001  6.000e+000
 9.675e+001 -1.693e+001  8.000e+000
 9.675e+001 -1.693e+001  9.600e+000
 9.675e+001 -1.693e+001  1.120e+001
 9.675e+001 -1.693e+001  1.280e+001
 9.675e+001 -1.693e+001  1.440e+001
 9.675e+001 -1.693e+001  1.600e+001
 1.290e+002 -1.959e+001  0.000e+000
 1.290e+002 -1.959e+001  2.000e+000
 1.290e+002 -1.959e+001  4.000e+000
 1.290e+002 -1.959e+001  6.000e+000
 1.290e+002 -1.959e+001  8.000e+000
 1.290e+002 -1.959e+001  9.600e+000
 1.290e+002 -1.959e+001  1.120e+001
 1.290e+002 -1.959e+001  1.280e+001
 1.290e+002 -1.959e+001  1.440e+001
 1.290e+002 -1.959e+001  1.600e+001
 1.612e+002 -1.972e+001  0.000e+000
 1.612e+002 -1.972e+001  2.000e+000
 1.612e+002 -1.972e+001  4.000e+000
 1.612e+002 -1.972e+001  6.000e+000
 1.612e+002 -1.972e+001  8.000e+000
 1.612e+002 -1.972e+001  9.600e+000
 1.612e+002 -1.972e+001  1.120e+001
 1.612e+002 -1.972e+001  1.280e+001
 1.612e+002 -1.972e+001  1.440e+001
 1.612e+002 -1.972e+001  1.600e+001
 1.934e+002 -1.718e+001  0.000e+000
 1.934e+002 -1.718e+001  2.000e+000
 1.934e+002 -1.718e+001  4.000e+000
 1.934e+002 -1.718e+001  6.000e+000
 1.934e+002 -1.718e+001  8.000e+000
 1.934e+002 -1.718e+001  9.600e+000
 1.934e+002 -1.718e+001  1.120e+001
 1.934e+002 -1.718e+001  1.280e+001
 1.934e+002 -1.718e+001  1.440e+001
 1.934e+002 -1.718e+001  1.600e+001
 2.256e+002 -1.259e+001  0.000e+000
 2.256e+002 -1.259e+001  2.000e+000
 2.256e+002 -1.259e+001  4.000e+000
 2.256e+002 -1.259e+001  6.000e+000
 2.256e+002 -1.259e+001  8.000e+000
 2.256e+002 -1.259e+001  9.600e+000
 2.256e+002 -1.259e+001  1.120e+001
 2.256e+002 -1.259e+001  1.280e+001
 2.256e+002 -1.259e+001  1.440e+001
 2.256e+002 -1.259e+001  1.600e+001
 2.578e+002 -6.636e+000  0.000e+000
 2.578e+002 -6.636e+000  2.000e+000
 2.578e+002 -6.636e+000  4.000e+000
 2.578e+002 -6.636e+000  6.000e+000
 2.578e+002 -6.636e+000  8.000e+000
 2.578e+002 -6.636e+000  9.600e+000
 2.578e+002 -6.636e+000  1.120e+001
 2.578e+002 -6.636e+000  1.280e+001
 2.578e+002 -6.636e+000  1.440e+001
 2.578e+002 -6.636e+000  1.600e+001
       1        2       12       11
       2        3       13       12
       3        4       14       13
       4        5       15       14
       5        6       16       15
       6        7       17       16
       7        8       18       17
       8        9       19       18
       9       10       20       19
      11       12       22       21
      12       13       23       22
      13       14       24       23
      14       15       25       24
      15       16       26       25
      16       17       27       26
      17       18       28       27
      18       19       29       28
      19       20       30       29
      21       22       32       31
      22       23       33       32
      23       24       34       33
      24       25       35       34
      25       26       36       35
      26       27       37       36
      27       28       38       37
      28       29       39       38
      29       30       40       39
      31       32       42       41
      32       33       43       42
      33       34       44       43
      34       35       45       44
      35       36       46       45
      36       37       47       46
      37       38       48       47
      38       39       49       48
      39       40       50       49
      41       42       52       51
      42       43       53       52
      43       44       54       53
      44       45       55       54
      45       46       56       55
      46       47       57       56
      47       48       58       57
      48       49       59       58
      49       50       60       59
      51       52       62       61
      52       53       63       62
      53       54       64       63
      54       55       65       64
      55       56       66       65
      56       57       67       66
      57       58       68       67
      58       59       69       68
      59       60       70       69
      61       62       72       71
      62       63       73       72
      63       64       74       73
      64       65       75       74
      65       66       76       75
      66       67       77       76
      67       68       78       77
      68       69       79       78
      69       70       80       79
      71       72       82       81
      72       73       83       82
      73       74       84       83
      74       75       85       84
      75       76       86       85
      76       77       87       86
      77       78       88       87
      78       79       89       88
      79       80       90       89
      81       82       92       91
      82       83       93       92
      83       84       94       93
      84       85       95       94
      85       86       96       95
      86       87       97       96
      87       88       98       97
      88       89       99       98
      89       90      100       99
      91       92      102      101
      92       93      103      102
      93       94      104      103
      94       95      105      104
      95       96      106      105
      96       97      107      106
      97       98      108      107
      98       99      109      108
      99      100      110      109
     101      102      112      111
     102      103      113      112
     103      104      114      113
     104      105      115      114
     105      106      116      115
     106      107      117      116
     107      108      118      117
     108      109      119      118
     109      110      120      119
     111      112      122      121
     112      113      123      122
     113      114      124      123
     114      115      125      124
     115      116      126      125
     116      117      127      126
     117      118      128      127
     118      119      129      128
     119      120      130      129
     121      122      132      131
     122      123      133      132
     123      124      134      133
     124      125      135      134
     125      126      136      135
     126      127      137      136
     127      128      138      137
     128      129      139      138
     129      130      140      139
     131      132      142      141
     132      133      143      142
     133      134      144      143
     134      135      145      144
     135      136      146      145
     136      137      147      146
     137      138      148      147
     138      139      149      148
     139      140      150      149
     141      142      152      151
     142      143      153      152
     143      144      154      153
     144      145      155      154
     145      146      156      155
     146      147      157      156
     147      148      158      157
     148      149      159      158
     149      150      160      159
     151      152      162      161
     152      153      163      162
     153      154      164      163
     154      155      165      164
     155      156      166      165
     156      157      167      166
     157      158      168      167
     158      159      169      168
     159      160      170      169
     161      162      172      171
     162      163      173      172
     163      164      174      173
     164      165      175      174
     165      166      176      175
     166      167      177      176
     167      168      178      177
     168      169      179      178
     169      170      180      179
     171      172        2        1
     172      173        3        2
     173      174        4        3
     174      175        5        4
     175      176        6        5
     176      177        7        6
     177      178        8        7
     178      179        9        8
     179      180       10        9
