TITLE = "NODEELEMENT"
VARIABLES = "X", "Y", "Z"
ZONE N=    1844, E=    1785, F=FEPOINT, ET=QUADRILATERAL
 5.475e+002 -1.000e+002  8.000e+000
 5.475e+002 -1.000e+002  2.444e+000
 5.475e+002 -1.000e+002 -3.111e+000
 5.475e+002 -1.000e+002 -8.667e+000
 5.475e+002 -1.000e+002 -1.422e+001
 5.475e+002 -1.000e+002 -1.978e+001
 5.475e+002 -1.000e+002 -2.533e+001
 5.475e+002 -1.000e+002 -3.089e+001
 5.475e+002 -1.000e+002 -3.644e+001
 5.475e+002 -1.000e+002 -4.200e+001
 5.475e+002 -8.947e+001  8.000e+000
 5.475e+002 -8.947e+001  2.444e+000
 5.475e+002 -8.947e+001 -3.111e+000
 5.475e+002 -8.947e+001 -8.667e+000
 5.475e+002 -8.947e+001 -1.422e+001
 5.475e+002 -8.947e+001 -1.978e+001
 5.475e+002 -8.947e+001 -2.533e+001
 5.475e+002 -8.947e+001 -3.089e+001
 5.475e+002 -8.947e+001 -3.644e+001
 5.475e+002 -8.947e+001 -4.200e+001
 5.475e+002 -7.895e+001  8.000e+000
 5.475e+002 -7.895e+001  2.444e+000
 5.475e+002 -7.895e+001 -3.111e+000
 5.475e+002 -7.895e+001 -8.667e+000
 5.475e+002 -7.895e+001 -1.422e+001
 5.475e+002 -7.895e+001 -1.978e+001
 5.475e+002 -7.895e+001 -2.533e+001
 5.475e+002 -7.895e+001 -3.089e+001
 5.475e+002 -7.895e+001 -3.644e+001
 5.475e+002 -7.895e+001 -4.200e+001
 5.475e+002 -6.842e+001  8.000e+000
 5.475e+002 -6.842e+001  2.444e+000
 5.475e+002 -6.842e+001 -3.111e+000
 5.475e+002 -6.842e+001 -8.667e+000
 5.475e+002 -6.842e+001 -1.422e+001
 5.475e+002 -6.842e+001 -1.978e+001
 5.475e+002 -6.842e+001 -2.533e+001
 5.475e+002 -6.842e+001 -3.089e+001
 5.475e+002 -6.842e+001 -3.644e+001
 5.475e+002 -6.842e+001 -4.200e+001
 5.475e+002 -5.789e+001  8.000e+000
 5.475e+002 -5.789e+001  2.444e+000
 5.475e+002 -5.789e+001 -3.111e+000
 5.475e+002 -5.789e+001 -8.667e+000
 5.475e+002 -5.789e+001 -1.422e+001
 5.475e+002 -5.789e+001 -1.978e+001
 5.475e+002 -5.789e+001 -2.533e+001
 5.475e+002 -5.789e+001 -3.089e+001
 5.475e+002 -5.789e+001 -3.644e+001
 5.475e+002 -5.789e+001 -4.200e+001
 5.475e+002 -4.737e+001  8.000e+000
 5.475e+002 -4.737e+001  2.444e+000
 5.475e+002 -4.737e+001 -3.111e+000
 5.475e+002 -4.737e+001 -8.667e+000
 5.475e+002 -4.737e+001 -1.422e+001
 5.475e+002 -4.737e+001 -1.978e+001
 5.475e+002 -4.737e+001 -2.533e+001
 5.475e+002 -4.737e+001 -3.089e+001
 5.475e+002 -4.737e+001 -3.644e+001
 5.475e+002 -4.737e+001 -4.200e+001
 5.475e+002 -3.684e+001  8.000e+000
 5.475e+002 -3.684e+001  2.444e+000
 5.475e+002 -3.684e+001 -3.111e+000
 5.475e+002 -3.684e+001 -8.667e+000
 5.475e+002 -3.684e+001 -1.422e+001
 5.475e+002 -3.684e+001 -1.978e+001
 5.475e+002 -3.684e+001 -2.533e+001
 5.475e+002 -3.684e+001 -3.089e+001
 5.475e+002 -3.684e+001 -3.644e+001
 5.475e+002 -3.684e+001 -4.200e+001
 5.475e+002 -2.632e+001  8.000e+000
 5.475e+002 -2.632e+001  2.444e+000
 5.475e+002 -2.632e+001 -3.111e+000
 5.475e+002 -2.632e+001 -8.667e+000
 5.475e+002 -2.632e+001 -1.422e+001
 5.475e+002 -2.632e+001 -1.978e+001
 5.475e+002 -2.632e+001 -2.533e+001
 5.475e+002 -2.632e+001 -3.089e+001
 5.475e+002 -2.632e+001 -3.644e+001
 5.475e+002 -2.632e+001 -4.200e+001
 5.475e+002 -1.579e+001  8.000e+000
 5.475e+002 -1.579e+001  2.444e+000
 5.475e+002 -1.579e+001 -3.111e+000
 5.475e+002 -1.579e+001 -8.667e+000
 5.475e+002 -1.579e+001 -1.422e+001
 5.475e+002 -1.579e+001 -1.978e+001
 5.475e+002 -1.579e+001 -2.533e+001
 5.475e+002 -1.579e+001 -3.089e+001
 5.475e+002 -1.579e+001 -3.644e+001
 5.475e+002 -1.579e+001 -4.200e+001
 5.475e+002 -5.263e+000  8.000e+000
 5.475e+002 -5.263e+000  2.444e+000
 5.475e+002 -5.263e+000 -3.111e+000
 5.475e+002 -5.263e+000 -8.667e+000
 5.475e+002 -5.263e+000 -1.422e+001
 5.475e+002 -5.263e+000 -1.978e+001
 5.475e+002 -5.263e+000 -2.533e+001
 5.475e+002 -5.263e+000 -3.089e+001
 5.475e+002 -5.263e+000 -3.644e+001
 5.475e+002 -5.263e+000 -4.200e+001
 5.475e+002  5.263e+000  8.000e+000
 5.475e+002  5.263e+000  2.444e+000
 5.475e+002  5.263e+000 -3.111e+000
 5.475e+002  5.263e+000 -8.667e+000
 5.475e+002  5.263e+000 -1.422e+001
 5.475e+002  5.263e+000 -1.978e+001
 5.475e+002  5.263e+000 -2.533e+001
 5.475e+002  5.263e+000 -3.089e+001
 5.475e+002  5.263e+000 -3.644e+001
 5.475e+002  5.263e+000 -4.200e+001
 5.475e+002  1.579e+001  8.000e+000
 5.475e+002  1.579e+001  2.444e+000
 5.475e+002  1.579e+001 -3.111e+000
 5.475e+002  1.579e+001 -8.667e+000
 5.475e+002  1.579e+001 -1.422e+001
 5.475e+002  1.579e+001 -1.978e+001
 5.475e+002  1.579e+001 -2.533e+001
 5.475e+002  1.579e+001 -3.089e+001
 5.475e+002  1.579e+001 -3.644e+001
 5.475e+002  1.579e+001 -4.200e+001
 5.475e+002  2.632e+001  8.000e+000
 5.475e+002  2.632e+001  2.444e+000
 5.475e+002  2.632e+001 -3.111e+000
 5.475e+002  2.632e+001 -8.667e+000
 5.475e+002  2.632e+001 -1.422e+001
 5.475e+002  2.632e+001 -1.978e+001
 5.475e+002  2.632e+001 -2.533e+001
 5.475e+002  2.632e+001 -3.089e+001
 5.475e+002  2.632e+001 -3.644e+001
 5.475e+002  2.632e+001 -4.200e+001
 5.475e+002  3.684e+001  8.000e+000
 5.475e+002  3.684e+001  2.444e+000
 5.475e+002  3.684e+001 -3.111e+000
 5.475e+002  3.684e+001 -8.667e+000
 5.475e+002  3.684e+001 -1.422e+001
 5.475e+002  3.684e+001 -1.978e+001
 5.475e+002  3.684e+001 -2.533e+001
 5.475e+002  3.684e+001 -3.089e+001
 5.475e+002  3.684e+001 -3.644e+001
 5.475e+002  3.684e+001 -4.200e+001
 5.475e+002  4.737e+001  8.000e+000
 5.475e+002  4.737e+001  2.444e+000
 5.475e+002  4.737e+001 -3.111e+000
 5.475e+002  4.737e+001 -8.667e+000
 5.475e+002  4.737e+001 -1.422e+001
 5.475e+002  4.737e+001 -1.978e+001
 5.475e+002  4.737e+001 -2.533e+001
 5.475e+002  4.737e+001 -3.089e+001
 5.475e+002  4.737e+001 -3.644e+001
 5.475e+002  4.737e+001 -4.200e+001
 5.475e+002  5.789e+001  8.000e+000
 5.475e+002  5.789e+001  2.444e+000
 5.475e+002  5.789e+001 -3.111e+000
 5.475e+002  5.789e+001 -8.667e+000
 5.475e+002  5.789e+001 -1.422e+001
 5.475e+002  5.789e+001 -1.978e+001
 5.475e+002  5.789e+001 -2.533e+001
 5.475e+002  5.789e+001 -3.089e+001
 5.475e+002  5.789e+001 -3.644e+001
 5.475e+002  5.789e+001 -4.200e+001
 5.475e+002  6.842e+001  8.000e+000
 5.475e+002  6.842e+001  2.444e+000
 5.475e+002  6.842e+001 -3.111e+000
 5.475e+002  6.842e+001 -8.667e+000
 5.475e+002  6.842e+001 -1.422e+001
 5.475e+002  6.842e+001 -1.978e+001
 5.475e+002  6.842e+001 -2.533e+001
 5.475e+002  6.842e+001 -3.089e+001
 5.475e+002  6.842e+001 -3.644e+001
 5.475e+002  6.842e+001 -4.200e+001
 5.475e+002  7.895e+001  8.000e+000
 5.475e+002  7.895e+001  2.444e+000
 5.475e+002  7.895e+001 -3.111e+000
 5.475e+002  7.895e+001 -8.667e+000
 5.475e+002  7.895e+001 -1.422e+001
 5.475e+002  7.895e+001 -1.978e+001
 5.475e+002  7.895e+001 -2.533e+001
 5.475e+002  7.895e+001 -3.089e+001
 5.475e+002  7.895e+001 -3.644e+001
 5.475e+002  7.895e+001 -4.200e+001
 5.475e+002  8.947e+001  8.000e+000
 5.475e+002  8.947e+001  2.444e+000
 5.475e+002  8.947e+001 -3.111e+000
 5.475e+002  8.947e+001 -8.667e+000
 5.475e+002  8.947e+001 -1.422e+001
 5.475e+002  8.947e+001 -1.978e+001
 5.475e+002  8.947e+001 -2.533e+001
 5.475e+002  8.947e+001 -3.089e+001
 5.475e+002  8.947e+001 -3.644e+001
 5.475e+002  8.947e+001 -4.200e+001
 5.475e+002  1.000e+002  8.000e+000
 5.475e+002  1.000e+002  2.444e+000
 5.475e+002  1.000e+002 -3.111e+000
 5.475e+002  1.000e+002 -8.667e+000
 5.475e+002  1.000e+002 -1.422e+001
 5.475e+002  1.000e+002 -1.978e+001
 5.475e+002  1.000e+002 -2.533e+001
 5.475e+002  1.000e+002 -3.089e+001
 5.475e+002  1.000e+002 -3.644e+001
 5.475e+002  1.000e+002 -4.200e+001
 5.270e+002  1.000e+002  8.000e+000
 5.270e+002  1.000e+002  2.444e+000
 5.270e+002  1.000e+002 -3.111e+000
 5.270e+002  1.000e+002 -8.667e+000
 5.270e+002  1.000e+002 -1.422e+001
 5.270e+002  1.000e+002 -1.978e+001
 5.270e+002  1.000e+002 -2.533e+001
 5.270e+002  1.000e+002 -3.089e+001
 5.270e+002  1.000e+002 -3.644e+001
 5.270e+002  1.000e+002 -4.200e+001
 5.065e+002  1.000e+002  8.000e+000
 5.065e+002  1.000e+002  2.444e+000
 5.065e+002  1.000e+002 -3.111e+000
 5.065e+002  1.000e+002 -8.667e+000
 5.065e+002  1.000e+002 -1.422e+001
 5.065e+002  1.000e+002 -1.978e+001
 5.065e+002  1.000e+002 -2.533e+001
 5.065e+002  1.000e+002 -3.089e+001
 5.065e+002  1.000e+002 -3.644e+001
 5.065e+002  1.000e+002 -4.200e+001
 4.860e+002  1.000e+002  8.000e+000
 4.860e+002  1.000e+002  2.444e+000
 4.860e+002  1.000e+002 -3.111e+000
 4.860e+002  1.000e+002 -8.667e+000
 4.860e+002  1.000e+002 -1.422e+001
 4.860e+002  1.000e+002 -1.978e+001
 4.860e+002  1.000e+002 -2.533e+001
 4.860e+002  1.000e+002 -3.089e+001
 4.860e+002  1.000e+002 -3.644e+001
 4.860e+002  1.000e+002 -4.200e+001
 4.654e+002  1.000e+002  8.000e+000
 4.654e+002  1.000e+002  2.444e+000
 4.654e+002  1.000e+002 -3.111e+000
 4.654e+002  1.000e+002 -8.667e+000
 4.654e+002  1.000e+002 -1.422e+001
 4.654e+002  1.000e+002 -1.978e+001
 4.654e+002  1.000e+002 -2.533e+001
 4.654e+002  1.000e+002 -3.089e+001
 4.654e+002  1.000e+002 -3.644e+001
 4.654e+002  1.000e+002 -4.200e+001
 4.449e+002  1.000e+002  8.000e+000
 4.449e+002  1.000e+002  2.444e+000
 4.449e+002  1.000e+002 -3.111e+000
 4.449e+002  1.000e+002 -8.667e+000
 4.449e+002  1.000e+002 -1.422e+001
 4.449e+002  1.000e+002 -1.978e+001
 4.449e+002  1.000e+002 -2.533e+001
 4.449e+002  1.000e+002 -3.089e+001
 4.449e+002  1.000e+002 -3.644e+001
 4.449e+002  1.000e+002 -4.200e+001
 4.244e+002  1.000e+002  8.000e+000
 4.244e+002  1.000e+002  2.444e+000
 4.244e+002  1.000e+002 -3.111e+000
 4.244e+002  1.000e+002 -8.667e+000
 4.244e+002  1.000e+002 -1.422e+001
 4.244e+002  1.000e+002 -1.978e+001
 4.244e+002  1.000e+002 -2.533e+001
 4.244e+002  1.000e+002 -3.089e+001
 4.244e+002  1.000e+002 -3.644e+001
 4.244e+002  1.000e+002 -4.200e+001
 4.039e+002  1.000e+002  8.000e+000
 4.039e+002  1.000e+002  2.444e+000
 4.039e+002  1.000e+002 -3.111e+000
 4.039e+002  1.000e+002 -8.667e+000
 4.039e+002  1.000e+002 -1.422e+001
 4.039e+002  1.000e+002 -1.978e+001
 4.039e+002  1.000e+002 -2.533e+001
 4.039e+002  1.000e+002 -3.089e+001
 4.039e+002  1.000e+002 -3.644e+001
 4.039e+002  1.000e+002 -4.200e+001
 3.834e+002  1.000e+002  8.000e+000
 3.834e+002  1.000e+002  2.444e+000
 3.834e+002  1.000e+002 -3.111e+000
 3.834e+002  1.000e+002 -8.667e+000
 3.834e+002  1.000e+002 -1.422e+001
 3.834e+002  1.000e+002 -1.978e+001
 3.834e+002  1.000e+002 -2.533e+001
 3.834e+002  1.000e+002 -3.089e+001
 3.834e+002  1.000e+002 -3.644e+001
 3.834e+002  1.000e+002 -4.200e+001
 3.629e+002  1.000e+002  8.000e+000
 3.629e+002  1.000e+002  2.444e+000
 3.629e+002  1.000e+002 -3.111e+000
 3.629e+002  1.000e+002 -8.667e+000
 3.629e+002  1.000e+002 -1.422e+001
 3.629e+002  1.000e+002 -1.978e+001
 3.629e+002  1.000e+002 -2.533e+001
 3.629e+002  1.000e+002 -3.089e+001
 3.629e+002  1.000e+002 -3.644e+001
 3.629e+002  1.000e+002 -4.200e+001
 3.424e+002  1.000e+002  8.000e+000
 3.424e+002  1.000e+002  2.444e+000
 3.424e+002  1.000e+002 -3.111e+000
 3.424e+002  1.000e+002 -8.667e+000
 3.424e+002  1.000e+002 -1.422e+001
 3.424e+002  1.000e+002 -1.978e+001
 3.424e+002  1.000e+002 -2.533e+001
 3.424e+002  1.000e+002 -3.089e+001
 3.424e+002  1.000e+002 -3.644e+001
 3.424e+002  1.000e+002 -4.200e+001
 3.219e+002  1.000e+002  8.000e+000
 3.219e+002  1.000e+002  2.444e+000
 3.219e+002  1.000e+002 -3.111e+000
 3.219e+002  1.000e+002 -8.667e+000
 3.219e+002  1.000e+002 -1.422e+001
 3.219e+002  1.000e+002 -1.978e+001
 3.219e+002  1.000e+002 -2.533e+001
 3.219e+002  1.000e+002 -3.089e+001
 3.219e+002  1.000e+002 -3.644e+001
 3.219e+002  1.000e+002 -4.200e+001
 3.013e+002  1.000e+002  8.000e+000
 3.013e+002  1.000e+002  2.444e+000
 3.013e+002  1.000e+002 -3.111e+000
 3.013e+002  1.000e+002 -8.667e+000
 3.013e+002  1.000e+002 -1.422e+001
 3.013e+002  1.000e+002 -1.978e+001
 3.013e+002  1.000e+002 -2.533e+001
 3.013e+002  1.000e+002 -3.089e+001
 3.013e+002  1.000e+002 -3.644e+001
 3.013e+002  1.000e+002 -4.200e+001
 2.808e+002  1.000e+002  8.000e+000
 2.808e+002  1.000e+002  2.444e+000
 2.808e+002  1.000e+002 -3.111e+000
 2.808e+002  1.000e+002 -8.667e+000
 2.808e+002  1.000e+002 -1.422e+001
 2.808e+002  1.000e+002 -1.978e+001
 2.808e+002  1.000e+002 -2.533e+001
 2.808e+002  1.000e+002 -3.089e+001
 2.808e+002  1.000e+002 -3.644e+001
 2.808e+002  1.000e+002 -4.200e+001
 2.603e+002  1.000e+002  8.000e+000
 2.603e+002  1.000e+002  2.444e+000
 2.603e+002  1.000e+002 -3.111e+000
 2.603e+002  1.000e+002 -8.667e+000
 2.603e+002  1.000e+002 -1.422e+001
 2.603e+002  1.000e+002 -1.978e+001
 2.603e+002  1.000e+002 -2.533e+001
 2.603e+002  1.000e+002 -3.089e+001
 2.603e+002  1.000e+002 -3.644e+001
 2.603e+002  1.000e+002 -4.200e+001
 2.398e+002  1.000e+002  8.000e+000
 2.398e+002  1.000e+002  2.444e+000
 2.398e+002  1.000e+002 -3.111e+000
 2.398e+002  1.000e+002 -8.667e+000
 2.398e+002  1.000e+002 -1.422e+001
 2.398e+002  1.000e+002 -1.978e+001
 2.398e+002  1.000e+002 -2.533e+001
 2.398e+002  1.000e+002 -3.089e+001
 2.398e+002  1.000e+002 -3.644e+001
 2.398e+002  1.000e+002 -4.200e+001
 2.193e+002  1.000e+002  8.000e+000
 2.193e+002  1.000e+002  2.444e+000
 2.193e+002  1.000e+002 -3.111e+000
 2.193e+002  1.000e+002 -8.667e+000
 2.193e+002  1.000e+002 -1.422e+001
 2.193e+002  1.000e+002 -1.978e+001
 2.193e+002  1.000e+002 -2.533e+001
 2.193e+002  1.000e+002 -3.089e+001
 2.193e+002  1.000e+002 -3.644e+001
 2.193e+002  1.000e+002 -4.200e+001
 1.988e+002  1.000e+002  8.000e+000
 1.988e+002  1.000e+002  2.444e+000
 1.988e+002  1.000e+002 -3.111e+000
 1.988e+002  1.000e+002 -8.667e+000
 1.988e+002  1.000e+002 -1.422e+001
 1.988e+002  1.000e+002 -1.978e+001
 1.988e+002  1.000e+002 -2.533e+001
 1.988e+002  1.000e+002 -3.089e+001
 1.988e+002  1.000e+002 -3.644e+001
 1.988e+002  1.000e+002 -4.200e+001
 1.783e+002  1.000e+002  8.000e+000
 1.783e+002  1.000e+002  2.444e+000
 1.783e+002  1.000e+002 -3.111e+000
 1.783e+002  1.000e+002 -8.667e+000
 1.783e+002  1.000e+002 -1.422e+001
 1.783e+002  1.000e+002 -1.978e+001
 1.783e+002  1.000e+002 -2.533e+001
 1.783e+002  1.000e+002 -3.089e+001
 1.783e+002  1.000e+002 -3.644e+001
 1.783e+002  1.000e+002 -4.200e+001
 1.578e+002  1.000e+002  8.000e+000
 1.578e+002  1.000e+002  2.444e+000
 1.578e+002  1.000e+002 -3.111e+000
 1.578e+002  1.000e+002 -8.667e+000
 1.578e+002  1.000e+002 -1.422e+001
 1.578e+002  1.000e+002 -1.978e+001
 1.578e+002  1.000e+002 -2.533e+001
 1.578e+002  1.000e+002 -3.089e+001
 1.578e+002  1.000e+002 -3.644e+001
 1.578e+002  1.000e+002 -4.200e+001
 1.372e+002  1.000e+002  8.000e+000
 1.372e+002  1.000e+002  2.444e+000
 1.372e+002  1.000e+002 -3.111e+000
 1.372e+002  1.000e+002 -8.667e+000
 1.372e+002  1.000e+002 -1.422e+001
 1.372e+002  1.000e+002 -1.978e+001
 1.372e+002  1.000e+002 -2.533e+001
 1.372e+002  1.000e+002 -3.089e+001
 1.372e+002  1.000e+002 -3.644e+001
 1.372e+002  1.000e+002 -4.200e+001
 1.167e+002  1.000e+002  8.000e+000
 1.167e+002  1.000e+002  2.444e+000
 1.167e+002  1.000e+002 -3.111e+000
 1.167e+002  1.000e+002 -8.667e+000
 1.167e+002  1.000e+002 -1.422e+001
 1.167e+002  1.000e+002 -1.978e+001
 1.167e+002  1.000e+002 -2.533e+001
 1.167e+002  1.000e+002 -3.089e+001
 1.167e+002  1.000e+002 -3.644e+001
 1.167e+002  1.000e+002 -4.200e+001
 9.622e+001  1.000e+002  8.000e+000
 9.622e+001  1.000e+002  2.444e+000
 9.622e+001  1.000e+002 -3.111e+000
 9.622e+001  1.000e+002 -8.667e+000
 9.622e+001  1.000e+002 -1.422e+001
 9.622e+001  1.000e+002 -1.978e+001
 9.622e+001  1.000e+002 -2.533e+001
 9.622e+001  1.000e+002 -3.089e+001
 9.622e+001  1.000e+002 -3.644e+001
 9.622e+001  1.000e+002 -4.200e+001
 7.571e+001  1.000e+002  8.000e+000
 7.571e+001  1.000e+002  2.444e+000
 7.571e+001  1.000e+002 -3.111e+000
 7.571e+001  1.000e+002 -8.667e+000
 7.571e+001  1.000e+002 -1.422e+001
 7.571e+001  1.000e+002 -1.978e+001
 7.571e+001  1.000e+002 -2.533e+001
 7.571e+001  1.000e+002 -3.089e+001
 7.571e+001  1.000e+002 -3.644e+001
 7.571e+001  1.000e+002 -4.200e+001
 5.519e+001  1.000e+002  8.000e+000
 5.519e+001  1.000e+002  2.444e+000
 5.519e+001  1.000e+002 -3.111e+000
 5.519e+001  1.000e+002 -8.667e+000
 5.519e+001  1.000e+002 -1.422e+001
 5.519e+001  1.000e+002 -1.978e+001
 5.519e+001  1.000e+002 -2.533e+001
 5.519e+001  1.000e+002 -3.089e+001
 5.519e+001  1.000e+002 -3.644e+001
 5.519e+001  1.000e+002 -4.200e+001
 3.468e+001  1.000e+002  8.000e+000
 3.468e+001  1.000e+002  2.444e+000
 3.468e+001  1.000e+002 -3.111e+000
 3.468e+001  1.000e+002 -8.667e+000
 3.468e+001  1.000e+002 -1.422e+001
 3.468e+001  1.000e+002 -1.978e+001
 3.468e+001  1.000e+002 -2.533e+001
 3.468e+001  1.000e+002 -3.089e+001
 3.468e+001  1.000e+002 -3.644e+001
 3.468e+001  1.000e+002 -4.200e+001
 1.417e+001  1.000e+002  8.000e+000
 1.417e+001  1.000e+002  2.444e+000
 1.417e+001  1.000e+002 -3.111e+000
 1.417e+001  1.000e+002 -8.667e+000
 1.417e+001  1.000e+002 -1.422e+001
 1.417e+001  1.000e+002 -1.978e+001
 1.417e+001  1.000e+002 -2.533e+001
 1.417e+001  1.000e+002 -3.089e+001
 1.417e+001  1.000e+002 -3.644e+001
 1.417e+001  1.000e+002 -4.200e+001
-6.346e+000  1.000e+002  8.000e+000
-6.346e+000  1.000e+002  2.444e+000
-6.346e+000  1.000e+002 -3.111e+000
-6.346e+000  1.000e+002 -8.667e+000
-6.346e+000  1.000e+002 -1.422e+001
-6.346e+000  1.000e+002 -1.978e+001
-6.346e+000  1.000e+002 -2.533e+001
-6.346e+000  1.000e+002 -3.089e+001
-6.346e+000  1.000e+002 -3.644e+001
-6.346e+000  1.000e+002 -4.200e+001
-2.686e+001  1.000e+002  8.000e+000
-2.686e+001  1.000e+002  2.444e+000
-2.686e+001  1.000e+002 -3.111e+000
-2.686e+001  1.000e+002 -8.667e+000
-2.686e+001  1.000e+002 -1.422e+001
-2.686e+001  1.000e+002 -1.978e+001
-2.686e+001  1.000e+002 -2.533e+001
-2.686e+001  1.000e+002 -3.089e+001
-2.686e+001  1.000e+002 -3.644e+001
-2.686e+001  1.000e+002 -4.200e+001
-4.737e+001  1.000e+002  8.000e+000
-4.737e+001  1.000e+002  2.444e+000
-4.737e+001  1.000e+002 -3.111e+000
-4.737e+001  1.000e+002 -8.667e+000
-4.737e+001  1.000e+002 -1.422e+001
-4.737e+001  1.000e+002 -1.978e+001
-4.737e+001  1.000e+002 -2.533e+001
-4.737e+001  1.000e+002 -3.089e+001
-4.737e+001  1.000e+002 -3.644e+001
-4.737e+001  1.000e+002 -4.200e+001
-6.788e+001  1.000e+002  8.000e+000
-6.788e+001  1.000e+002  2.444e+000
-6.788e+001  1.000e+002 -3.111e+000
-6.788e+001  1.000e+002 -8.667e+000
-6.788e+001  1.000e+002 -1.422e+001
-6.788e+001  1.000e+002 -1.978e+001
-6.788e+001  1.000e+002 -2.533e+001
-6.788e+001  1.000e+002 -3.089e+001
-6.788e+001  1.000e+002 -3.644e+001
-6.788e+001  1.000e+002 -4.200e+001
-8.840e+001  1.000e+002  8.000e+000
-8.840e+001  1.000e+002  2.444e+000
-8.840e+001  1.000e+002 -3.111e+000
-8.840e+001  1.000e+002 -8.667e+000
-8.840e+001  1.000e+002 -1.422e+001
-8.840e+001  1.000e+002 -1.978e+001
-8.840e+001  1.000e+002 -2.533e+001
-8.840e+001  1.000e+002 -3.089e+001
-8.840e+001  1.000e+002 -3.644e+001
-8.840e+001  1.000e+002 -4.200e+001
-1.089e+002  1.000e+002  8.000e+000
-1.089e+002  1.000e+002  2.444e+000
-1.089e+002  1.000e+002 -3.111e+000
-1.089e+002  1.000e+002 -8.667e+000
-1.089e+002  1.000e+002 -1.422e+001
-1.089e+002  1.000e+002 -1.978e+001
-1.089e+002  1.000e+002 -2.533e+001
-1.089e+002  1.000e+002 -3.089e+001
-1.089e+002  1.000e+002 -3.644e+001
-1.089e+002  1.000e+002 -4.200e+001
-1.294e+002  1.000e+002  8.000e+000
-1.294e+002  1.000e+002  2.444e+000
-1.294e+002  1.000e+002 -3.111e+000
-1.294e+002  1.000e+002 -8.667e+000
-1.294e+002  1.000e+002 -1.422e+001
-1.294e+002  1.000e+002 -1.978e+001
-1.294e+002  1.000e+002 -2.533e+001
-1.294e+002  1.000e+002 -3.089e+001
-1.294e+002  1.000e+002 -3.644e+001
-1.294e+002  1.000e+002 -4.200e+001
-1.499e+002  1.000e+002  8.000e+000
-1.499e+002  1.000e+002  2.444e+000
-1.499e+002  1.000e+002 -3.111e+000
-1.499e+002  1.000e+002 -8.667e+000
-1.499e+002  1.000e+002 -1.422e+001
-1.499e+002  1.000e+002 -1.978e+001
-1.499e+002  1.000e+002 -2.533e+001
-1.499e+002  1.000e+002 -3.089e+001
-1.499e+002  1.000e+002 -3.644e+001
-1.499e+002  1.000e+002 -4.200e+001
-1.704e+002  1.000e+002  8.000e+000
-1.704e+002  1.000e+002  2.444e+000
-1.704e+002  1.000e+002 -3.111e+000
-1.704e+002  1.000e+002 -8.667e+000
-1.704e+002  1.000e+002 -1.422e+001
-1.704e+002  1.000e+002 -1.978e+001
-1.704e+002  1.000e+002 -2.533e+001
-1.704e+002  1.000e+002 -3.089e+001
-1.704e+002  1.000e+002 -3.644e+001
-1.704e+002  1.000e+002 -4.200e+001
-1.910e+002  1.000e+002  8.000e+000
-1.910e+002  1.000e+002  2.444e+000
-1.910e+002  1.000e+002 -3.111e+000
-1.910e+002  1.000e+002 -8.667e+000
-1.910e+002  1.000e+002 -1.422e+001
-1.910e+002  1.000e+002 -1.978e+001
-1.910e+002  1.000e+002 -2.533e+001
-1.910e+002  1.000e+002 -3.089e+001
-1.910e+002  1.000e+002 -3.644e+001
-1.910e+002  1.000e+002 -4.200e+001
-2.115e+002  1.000e+002  8.000e+000
-2.115e+002  1.000e+002  2.444e+000
-2.115e+002  1.000e+002 -3.111e+000
-2.115e+002  1.000e+002 -8.667e+000
-2.115e+002  1.000e+002 -1.422e+001
-2.115e+002  1.000e+002 -1.978e+001
-2.115e+002  1.000e+002 -2.533e+001
-2.115e+002  1.000e+002 -3.089e+001
-2.115e+002  1.000e+002 -3.644e+001
-2.115e+002  1.000e+002 -4.200e+001
-2.320e+002  1.000e+002  8.000e+000
-2.320e+002  1.000e+002  2.444e+000
-2.320e+002  1.000e+002 -3.111e+000
-2.320e+002  1.000e+002 -8.667e+000
-2.320e+002  1.000e+002 -1.422e+001
-2.320e+002  1.000e+002 -1.978e+001
-2.320e+002  1.000e+002 -2.533e+001
-2.320e+002  1.000e+002 -3.089e+001
-2.320e+002  1.000e+002 -3.644e+001
-2.320e+002  1.000e+002 -4.200e+001
-2.525e+002  1.000e+002  8.000e+000
-2.525e+002  1.000e+002  2.444e+000
-2.525e+002  1.000e+002 -3.111e+000
-2.525e+002  1.000e+002 -8.667e+000
-2.525e+002  1.000e+002 -1.422e+001
-2.525e+002  1.000e+002 -1.978e+001
-2.525e+002  1.000e+002 -2.533e+001
-2.525e+002  1.000e+002 -3.089e+001
-2.525e+002  1.000e+002 -3.644e+001
-2.525e+002  1.000e+002 -4.200e+001
-2.525e+002  8.947e+001  8.000e+000
-2.525e+002  8.947e+001  2.444e+000
-2.525e+002  8.947e+001 -3.111e+000
-2.525e+002  8.947e+001 -8.667e+000
-2.525e+002  8.947e+001 -1.422e+001
-2.525e+002  8.947e+001 -1.978e+001
-2.525e+002  8.947e+001 -2.533e+001
-2.525e+002  8.947e+001 -3.089e+001
-2.525e+002  8.947e+001 -3.644e+001
-2.525e+002  8.947e+001 -4.200e+001
-2.525e+002  7.895e+001  8.000e+000
-2.525e+002  7.895e+001  2.444e+000
-2.525e+002  7.895e+001 -3.111e+000
-2.525e+002  7.895e+001 -8.667e+000
-2.525e+002  7.895e+001 -1.422e+001
-2.525e+002  7.895e+001 -1.978e+001
-2.525e+002  7.895e+001 -2.533e+001
-2.525e+002  7.895e+001 -3.089e+001
-2.525e+002  7.895e+001 -3.644e+001
-2.525e+002  7.895e+001 -4.200e+001
-2.525e+002  6.842e+001  8.000e+000
-2.525e+002  6.842e+001  2.444e+000
-2.525e+002  6.842e+001 -3.111e+000
-2.525e+002  6.842e+001 -8.667e+000
-2.525e+002  6.842e+001 -1.422e+001
-2.525e+002  6.842e+001 -1.978e+001
-2.525e+002  6.842e+001 -2.533e+001
-2.525e+002  6.842e+001 -3.089e+001
-2.525e+002  6.842e+001 -3.644e+001
-2.525e+002  6.842e+001 -4.200e+001
-2.525e+002  5.789e+001  8.000e+000
-2.525e+002  5.789e+001  2.444e+000
-2.525e+002  5.789e+001 -3.111e+000
-2.525e+002  5.789e+001 -8.667e+000
-2.525e+002  5.789e+001 -1.422e+001
-2.525e+002  5.789e+001 -1.978e+001
-2.525e+002  5.789e+001 -2.533e+001
-2.525e+002  5.789e+001 -3.089e+001
-2.525e+002  5.789e+001 -3.644e+001
-2.525e+002  5.789e+001 -4.200e+001
-2.525e+002  4.737e+001  8.000e+000
-2.525e+002  4.737e+001  2.444e+000
-2.525e+002  4.737e+001 -3.111e+000
-2.525e+002  4.737e+001 -8.667e+000
-2.525e+002  4.737e+001 -1.422e+001
-2.525e+002  4.737e+001 -1.978e+001
-2.525e+002  4.737e+001 -2.533e+001
-2.525e+002  4.737e+001 -3.089e+001
-2.525e+002  4.737e+001 -3.644e+001
-2.525e+002  4.737e+001 -4.200e+001
-2.525e+002  3.684e+001  8.000e+000
-2.525e+002  3.684e+001  2.444e+000
-2.525e+002  3.684e+001 -3.111e+000
-2.525e+002  3.684e+001 -8.667e+000
-2.525e+002  3.684e+001 -1.422e+001
-2.525e+002  3.684e+001 -1.978e+001
-2.525e+002  3.684e+001 -2.533e+001
-2.525e+002  3.684e+001 -3.089e+001
-2.525e+002  3.684e+001 -3.644e+001
-2.525e+002  3.684e+001 -4.200e+001
-2.525e+002  2.632e+001  8.000e+000
-2.525e+002  2.632e+001  2.444e+000
-2.525e+002  2.632e+001 -3.111e+000
-2.525e+002  2.632e+001 -8.667e+000
-2.525e+002  2.632e+001 -1.422e+001
-2.525e+002  2.632e+001 -1.978e+001
-2.525e+002  2.632e+001 -2.533e+001
-2.525e+002  2.632e+001 -3.089e+001
-2.525e+002  2.632e+001 -3.644e+001
-2.525e+002  2.632e+001 -4.200e+001
-2.525e+002  1.579e+001  8.000e+000
-2.525e+002  1.579e+001  2.444e+000
-2.525e+002  1.579e+001 -3.111e+000
-2.525e+002  1.579e+001 -8.667e+000
-2.525e+002  1.579e+001 -1.422e+001
-2.525e+002  1.579e+001 -1.978e+001
-2.525e+002  1.579e+001 -2.533e+001
-2.525e+002  1.579e+001 -3.089e+001
-2.525e+002  1.579e+001 -3.644e+001
-2.525e+002  1.579e+001 -4.200e+001
-2.525e+002  5.263e+000  8.000e+000
-2.525e+002  5.263e+000  2.444e+000
-2.525e+002  5.263e+000 -3.111e+000
-2.525e+002  5.263e+000 -8.667e+000
-2.525e+002  5.263e+000 -1.422e+001
-2.525e+002  5.263e+000 -1.978e+001
-2.525e+002  5.263e+000 -2.533e+001
-2.525e+002  5.263e+000 -3.089e+001
-2.525e+002  5.263e+000 -3.644e+001
-2.525e+002  5.263e+000 -4.200e+001
-2.525e+002 -5.263e+000  8.000e+000
-2.525e+002 -5.263e+000  2.444e+000
-2.525e+002 -5.263e+000 -3.111e+000
-2.525e+002 -5.263e+000 -8.667e+000
-2.525e+002 -5.263e+000 -1.422e+001
-2.525e+002 -5.263e+000 -1.978e+001
-2.525e+002 -5.263e+000 -2.533e+001
-2.525e+002 -5.263e+000 -3.089e+001
-2.525e+002 -5.263e+000 -3.644e+001
-2.525e+002 -5.263e+000 -4.200e+001
-2.525e+002 -1.579e+001  8.000e+000
-2.525e+002 -1.579e+001  2.444e+000
-2.525e+002 -1.579e+001 -3.111e+000
-2.525e+002 -1.579e+001 -8.667e+000
-2.525e+002 -1.579e+001 -1.422e+001
-2.525e+002 -1.579e+001 -1.978e+001
-2.525e+002 -1.579e+001 -2.533e+001
-2.525e+002 -1.579e+001 -3.089e+001
-2.525e+002 -1.579e+001 -3.644e+001
-2.525e+002 -1.579e+001 -4.200e+001
-2.525e+002 -2.632e+001  8.000e+000
-2.525e+002 -2.632e+001  2.444e+000
-2.525e+002 -2.632e+001 -3.111e+000
-2.525e+002 -2.632e+001 -8.667e+000
-2.525e+002 -2.632e+001 -1.422e+001
-2.525e+002 -2.632e+001 -1.978e+001
-2.525e+002 -2.632e+001 -2.533e+001
-2.525e+002 -2.632e+001 -3.089e+001
-2.525e+002 -2.632e+001 -3.644e+001
-2.525e+002 -2.632e+001 -4.200e+001
-2.525e+002 -3.684e+001  8.000e+000
-2.525e+002 -3.684e+001  2.444e+000
-2.525e+002 -3.684e+001 -3.111e+000
-2.525e+002 -3.684e+001 -8.667e+000
-2.525e+002 -3.684e+001 -1.422e+001
-2.525e+002 -3.684e+001 -1.978e+001
-2.525e+002 -3.684e+001 -2.533e+001
-2.525e+002 -3.684e+001 -3.089e+001
-2.525e+002 -3.684e+001 -3.644e+001
-2.525e+002 -3.684e+001 -4.200e+001
-2.525e+002 -4.737e+001  8.000e+000
-2.525e+002 -4.737e+001  2.444e+000
-2.525e+002 -4.737e+001 -3.111e+000
-2.525e+002 -4.737e+001 -8.667e+000
-2.525e+002 -4.737e+001 -1.422e+001
-2.525e+002 -4.737e+001 -1.978e+001
-2.525e+002 -4.737e+001 -2.533e+001
-2.525e+002 -4.737e+001 -3.089e+001
-2.525e+002 -4.737e+001 -3.644e+001
-2.525e+002 -4.737e+001 -4.200e+001
-2.525e+002 -5.789e+001  8.000e+000
-2.525e+002 -5.789e+001  2.444e+000
-2.525e+002 -5.789e+001 -3.111e+000
-2.525e+002 -5.789e+001 -8.667e+000
-2.525e+002 -5.789e+001 -1.422e+001
-2.525e+002 -5.789e+001 -1.978e+001
-2.525e+002 -5.789e+001 -2.533e+001
-2.525e+002 -5.789e+001 -3.089e+001
-2.525e+002 -5.789e+001 -3.644e+001
-2.525e+002 -5.789e+001 -4.200e+001
-2.525e+002 -6.842e+001  8.000e+000
-2.525e+002 -6.842e+001  2.444e+000
-2.525e+002 -6.842e+001 -3.111e+000
-2.525e+002 -6.842e+001 -8.667e+000
-2.525e+002 -6.842e+001 -1.422e+001
-2.525e+002 -6.842e+001 -1.978e+001
-2.525e+002 -6.842e+001 -2.533e+001
-2.525e+002 -6.842e+001 -3.089e+001
-2.525e+002 -6.842e+001 -3.644e+001
-2.525e+002 -6.842e+001 -4.200e+001
-2.525e+002 -7.895e+001  8.000e+000
-2.525e+002 -7.895e+001  2.444e+000
-2.525e+002 -7.895e+001 -3.111e+000
-2.525e+002 -7.895e+001 -8.667e+000
-2.525e+002 -7.895e+001 -1.422e+001
-2.525e+002 -7.895e+001 -1.978e+001
-2.525e+002 -7.895e+001 -2.533e+001
-2.525e+002 -7.895e+001 -3.089e+001
-2.525e+002 -7.895e+001 -3.644e+001
-2.525e+002 -7.895e+001 -4.200e+001
-2.525e+002 -8.947e+001  8.000e+000
-2.525e+002 -8.947e+001  2.444e+000
-2.525e+002 -8.947e+001 -3.111e+000
-2.525e+002 -8.947e+001 -8.667e+000
-2.525e+002 -8.947e+001 -1.422e+001
-2.525e+002 -8.947e+001 -1.978e+001
-2.525e+002 -8.947e+001 -2.533e+001
-2.525e+002 -8.947e+001 -3.089e+001
-2.525e+002 -8.947e+001 -3.644e+001
-2.525e+002 -8.947e+001 -4.200e+001
-2.525e+002 -1.000e+002  8.000e+000
-2.525e+002 -1.000e+002  2.444e+000
-2.525e+002 -1.000e+002 -3.111e+000
-2.525e+002 -1.000e+002 -8.667e+000
-2.525e+002 -1.000e+002 -1.422e+001
-2.525e+002 -1.000e+002 -1.978e+001
-2.525e+002 -1.000e+002 -2.533e+001
-2.525e+002 -1.000e+002 -3.089e+001
-2.525e+002 -1.000e+002 -3.644e+001
-2.525e+002 -1.000e+002 -4.200e+001
-2.320e+002 -1.000e+002  8.000e+000
-2.320e+002 -1.000e+002  2.444e+000
-2.320e+002 -1.000e+002 -3.111e+000
-2.320e+002 -1.000e+002 -8.667e+000
-2.320e+002 -1.000e+002 -1.422e+001
-2.320e+002 -1.000e+002 -1.978e+001
-2.320e+002 -1.000e+002 -2.533e+001
-2.320e+002 -1.000e+002 -3.089e+001
-2.320e+002 -1.000e+002 -3.644e+001
-2.320e+002 -1.000e+002 -4.200e+001
-2.115e+002 -1.000e+002  8.000e+000
-2.115e+002 -1.000e+002  2.444e+000
-2.115e+002 -1.000e+002 -3.111e+000
-2.115e+002 -1.000e+002 -8.667e+000
-2.115e+002 -1.000e+002 -1.422e+001
-2.115e+002 -1.000e+002 -1.978e+001
-2.115e+002 -1.000e+002 -2.533e+001
-2.115e+002 -1.000e+002 -3.089e+001
-2.115e+002 -1.000e+002 -3.644e+001
-2.115e+002 -1.000e+002 -4.200e+001
-1.910e+002 -1.000e+002  8.000e+000
-1.910e+002 -1.000e+002  2.444e+000
-1.910e+002 -1.000e+002 -3.111e+000
-1.910e+002 -1.000e+002 -8.667e+000
-1.910e+002 -1.000e+002 -1.422e+001
-1.910e+002 -1.000e+002 -1.978e+001
-1.910e+002 -1.000e+002 -2.533e+001
-1.910e+002 -1.000e+002 -3.089e+001
-1.910e+002 -1.000e+002 -3.644e+001
-1.910e+002 -1.000e+002 -4.200e+001
-1.704e+002 -1.000e+002  8.000e+000
-1.704e+002 -1.000e+002  2.444e+000
-1.704e+002 -1.000e+002 -3.111e+000
-1.704e+002 -1.000e+002 -8.667e+000
-1.704e+002 -1.000e+002 -1.422e+001
-1.704e+002 -1.000e+002 -1.978e+001
-1.704e+002 -1.000e+002 -2.533e+001
-1.704e+002 -1.000e+002 -3.089e+001
-1.704e+002 -1.000e+002 -3.644e+001
-1.704e+002 -1.000e+002 -4.200e+001
-1.499e+002 -1.000e+002  8.000e+000
-1.499e+002 -1.000e+002  2.444e+000
-1.499e+002 -1.000e+002 -3.111e+000
-1.499e+002 -1.000e+002 -8.667e+000
-1.499e+002 -1.000e+002 -1.422e+001
-1.499e+002 -1.000e+002 -1.978e+001
-1.499e+002 -1.000e+002 -2.533e+001
-1.499e+002 -1.000e+002 -3.089e+001
-1.499e+002 -1.000e+002 -3.644e+001
-1.499e+002 -1.000e+002 -4.200e+001