TITLE = "NODEELEMENT"
VARIABLES = "X", "Y", "Z"
ZONE N = 2614, E = 2513, F = FEPOINT, ET = QUADRILATERAL
 1.100e+000  0.000e+000 -1.000e+000
-9.000e-001  0.000e+000 -1.000e+000
 1.098e+000  4.935e-002 -1.000e+000
 1.092e+000  9.837e-002 -1.000e+000
 1.082e+000  1.468e-001 -1.000e+000
 1.068e+000  1.942e-001 -1.000e+000
 1.051e+000  2.404e-001 -1.000e+000
 1.030e+000  2.853e-001 -1.000e+000
 1.006e+000  3.285e-001 -1.000e+000
 9.793e-001  3.699e-001 -1.000e+000
 9.497e-001  4.095e-001 -1.000e+000
 9.178e-001  4.471e-001 -1.000e+000
 8.837e-001  4.829e-001 -1.000e+000
 8.478e-001  5.168e-001 -1.000e+000
 8.102e-001  5.489e-001 -1.000e+000
 7.713e-001  5.793e-001 -1.000e+000
 7.312e-001  6.082e-001 -1.000e+000
 6.903e-001  6.358e-001 -1.000e+000
 6.486e-001  6.624e-001 -1.000e+000
 6.065e-001  6.882e-001 -1.000e+000
 5.640e-001  7.133e-001 -1.000e+000
 5.213e-001  7.382e-001 -1.000e+000
 4.785e-001  7.629e-001 -1.000e+000
 4.358e-001  7.876e-001 -1.000e+000
 3.930e-001  8.123e-001 -1.000e+000
 3.501e-001  8.369e-001 -1.000e+000
 3.071e-001  8.613e-001 -1.000e+000
 2.638e-001  8.851e-001 -1.000e+000
 2.202e-001  9.082e-001 -1.000e+000
 1.760e-001  9.303e-001 -1.000e+000
 1.311e-001  9.511e-001 -1.000e+000
 8.555e-002  9.702e-001 -1.000e+000
 3.924e-002  9.873e-001 -1.000e+000
-7.834e-003  1.002e+000 -1.000e+000
-5.562e-002  1.015e+000 -1.000e+000
-1.040e-001  1.025e+000 -1.000e+000
-1.530e-001  1.031e+000 -1.000e+000
-2.022e-001  1.035e+000 -1.000e+000
-2.516e-001  1.035e+000 -1.000e+000
-3.009e-001  1.032e+000 -1.000e+000
-3.498e-001  1.025e+000 -1.000e+000
-3.980e-001  1.015e+000 -1.000e+000
-4.453e-001  1.000e+000 -1.000e+000
-4.913e-001  9.824e-001 -1.000e+000
-5.356e-001  9.607e-001 -1.000e+000
-5.781e-001  9.354e-001 -1.000e+000
-6.183e-001  9.067e-001 -1.000e+000
-6.561e-001  8.749e-001 -1.000e+000
-6.912e-001  8.402e-001 -1.000e+000
-7.236e-001  8.029e-001 -1.000e+000
-7.530e-001  7.632e-001 -1.000e+000
-7.794e-001  7.215e-001 -1.000e+000
-8.028e-001  6.780e-001 -1.000e+000
-8.233e-001  6.330e-001 -1.000e+000
-8.409e-001  5.869e-001 -1.000e+000
-8.557e-001  5.397e-001 -1.000e+000
-8.679e-001  4.919e-001 -1.000e+000
-8.777e-001  4.434e-001 -1.000e+000
-8.853e-001  3.946e-001 -1.000e+000
-8.909e-001  3.456e-001 -1.000e+000
-8.948e-001  2.963e-001 -1.000e+000
-8.974e-001  2.470e-001 -1.000e+000
-8.989e-001  1.976e-001 -1.000e+000
-8.996e-001  1.482e-001 -1.000e+000
-8.999e-001  9.883e-002 -1.000e+000
-9.000e-001  4.943e-002 -1.000e+000
-9.000e-001  1.102e-016  0.000e+000
-9.000e-001  0.000e+000 -9.500e-001
-9.000e-001  1.102e-017 -9.000e-001
-9.000e-001  1.653e-017 -8.500e-001
-9.000e-001  2.204e-017 -8.000e-001
-9.000e-001  2.755e-017 -7.500e-001
-9.000e-001  3.307e-017 -7.000e-001
-9.000e-001  3.858e-017 -6.500e-001
-9.000e-001  4.409e-017 -6.000e-001
-9.000e-001  4.960e-017 -5.500e-001
-9.000e-001  5.511e-017 -5.000e-001
-9.000e-001  6.062e-017 -4.500e-001
-9.000e-001  6.613e-017 -4.000e-001
-9.000e-001  7.164e-017 -3.500e-001
-9.000e-001  7.715e-017 -3.000e-001
-9.000e-001  8.266e-017 -2.500e-001
-9.000e-001  8.817e-017 -2.000e-001
-9.000e-001  9.369e-017 -1.500e-001
-9.000e-001  9.920e-017 -1.000e-001
-9.000e-001  1.047e-016 -5.000e-002
 1.100e+000  0.000e+000  0.000e+000
 1.098e+000  4.935e-002  0.000e+000
 1.092e+000  9.837e-002  0.000e+000
 1.082e+000  1.468e-001  0.000e+000
 1.068e+000  1.942e-001  0.000e+000
 1.051e+000  2.404e-001  0.000e+000
 1.030e+000  2.853e-001  0.000e+000
 1.006e+000  3.285e-001  0.000e+000
 9.793e-001  3.699e-001  0.000e+000
 9.497e-001  4.095e-001  0.000e+000
 9.178e-001  4.471e-001  0.000e+000
 8.837e-001  4.829e-001  0.000e+000
 8.478e-001  5.168e-001  0.000e+000
 8.102e-001  5.489e-001  0.000e+000
 7.713e-001  5.793e-001  0.000e+000
 7.312e-001  6.082e-001  0.000e+000
 6.903e-001  6.358e-001  0.000e+000
 6.486e-001  6.624e-001  0.000e+000
 6.065e-001  6.882e-001  0.000e+000
 5.640e-001  7.133e-001  0.000e+000
 5.213e-001  7.382e-001  0.000e+000
 4.785e-001  7.629e-001  0.000e+000
 4.358e-001  7.876e-001  0.000e+000
 3.930e-001  8.123e-001  0.000e+000
 3.501e-001  8.369e-001  0.000e+000
 3.071e-001  8.613e-001  0.000e+000
 2.638e-001  8.851e-001  0.000e+000
 2.202e-001  9.082e-001  0.000e+000
 1.760e-001  9.303e-001  0.000e+000
 1.311e-001  9.511e-001  0.000e+000
 8.555e-002  9.702e-001  0.000e+000
 3.924e-002  9.873e-001  0.000e+000
-7.834e-003  1.002e+000  0.000e+000
-5.562e-002  1.015e+000  0.000e+000
-1.040e-001  1.025e+000  0.000e+000
-1.530e-001  1.031e+000  0.000e+000
-2.022e-001  1.035e+000  0.000e+000
-2.516e-001  1.035e+000  0.000e+000
-3.009e-001  1.032e+000  0.000e+000
-3.498e-001  1.025e+000  0.000e+000
-3.980e-001  1.015e+000  0.000e+000
-4.453e-001  1.000e+000  0.000e+000
-4.913e-001  9.824e-001  0.000e+000
-5.356e-001  9.607e-001  0.000e+000
-5.781e-001  9.354e-001  0.000e+000
-6.183e-001  9.067e-001  0.000e+000
-6.561e-001  8.749e-001  0.000e+000
-6.912e-001  8.402e-001  0.000e+000
-7.236e-001  8.029e-001  0.000e+000
-7.530e-001  7.632e-001  0.000e+000
-7.794e-001  7.215e-001  0.000e+000
-8.028e-001  6.780e-001  0.000e+000
-8.233e-001  6.330e-001  0.000e+000
-8.409e-001  5.869e-001  0.000e+000
-8.557e-001  5.397e-001  0.000e+000
-8.679e-001  4.919e-001  0.000e+000
-8.777e-001  4.434e-001  0.000e+000
-8.853e-001  3.946e-001  0.000e+000
-8.909e-001  3.456e-001  0.000e+000
-8.948e-001  2.963e-001  0.000e+000
-8.974e-001  2.470e-001  0.000e+000
-8.989e-001  1.976e-001  0.000e+000
-8.996e-001  1.482e-001  0.000e+000
-8.999e-001  9.883e-002  0.000e+000
-9.000e-001  4.943e-002  0.000e+000
 1.100e+000  0.000e+000 -9.500e-001
 1.100e+000  0.000e+000 -9.000e-001
 1.100e+000  0.000e+000 -8.500e-001
 1.100e+000  0.000e+000 -8.000e-001
 1.100e+000  0.000e+000 -7.500e-001
 1.100e+000  0.000e+000 -7.000e-001
 1.100e+000  0.000e+000 -6.500e-001
 1.100e+000  0.000e+000 -6.000e-001
 1.100e+000  0.000e+000 -5.500e-001
 1.100e+000  0.000e+000 -5.000e-001
 1.100e+000  0.000e+000 -4.500e-001
 1.100e+000  0.000e+000 -4.000e-001
 1.100e+000  0.000e+000 -3.500e-001
 1.100e+000  0.000e+000 -3.000e-001
 1.100e+000  0.000e+000 -2.500e-001
 1.100e+000  0.000e+000 -2.000e-001
 1.100e+000  0.000e+000 -1.500e-001
 1.100e+000  0.000e+000 -1.000e-001
 1.100e+000  0.000e+000 -5.000e-002
 1.098e+000  4.935e-002 -9.500e-001
 1.098e+000  4.935e-002 -9.000e-001
 1.098e+000  4.935e-002 -8.500e-001
 1.098e+000  4.935e-002 -8.000e-001
 1.098e+000  4.935e-002 -7.500e-001
 1.098e+000  4.935e-002 -7.000e-001
 1.098e+000  4.935e-002 -6.500e-001
 1.098e+000  4.935e-002 -6.000e-001
 1.098e+000  4.935e-002 -5.500e-001
 1.098e+000  4.935e-002 -5.000e-001
 1.098e+000  4.935e-002 -4.500e-001
 1.098e+000  4.935e-002 -4.000e-001
 1.098e+000  4.935e-002 -3.500e-001
 1.098e+000  4.935e-002 -3.000e-001
 1.098e+000  4.935e-002 -2.500e-001
 1.098e+000  4.935e-002 -2.000e-001
 1.098e+000  4.935e-002 -1.500e-001
 1.098e+000  4.935e-002 -1.000e-001
 1.098e+000  4.935e-002 -5.000e-002
 1.092e+000  9.837e-002 -9.500e-001
 1.092e+000  9.837e-002 -9.000e-001
 1.092e+000  9.837e-002 -8.500e-001
 1.092e+000  9.837e-002 -8.000e-001
 1.092e+000  9.837e-002 -7.500e-001
 1.092e+000  9.837e-002 -7.000e-001
 1.092e+000  9.837e-002 -6.500e-001
 1.092e+000  9.837e-002 -6.000e-001
 1.092e+000  9.837e-002 -5.500e-001
 1.092e+000  9.837e-002 -5.000e-001
 1.092e+000  9.837e-002 -4.500e-001
 1.092e+000  9.837e-002 -4.000e-001
 1.092e+000  9.837e-002 -3.500e-001
 1.092e+000  9.837e-002 -3.000e-001
 1.092e+000  9.837e-002 -2.500e-001
 1.092e+000  9.837e-002 -2.000e-001
 1.092e+000  9.837e-002 -1.500e-001
 1.092e+000  9.837e-002 -1.000e-001
 1.092e+000  9.837e-002 -5.000e-002
 1.082e+000  1.468e-001 -9.500e-001
 1.082e+000  1.468e-001 -9.000e-001
 1.082e+000  1.468e-001 -8.500e-001
 1.082e+000  1.468e-001 -8.000e-001
 1.082e+000  1.468e-001 -7.500e-001
 1.082e+000  1.468e-001 -7.000e-001
 1.082e+000  1.468e-001 -6.500e-001
 1.082e+000  1.468e-001 -6.000e-001
 1.082e+000  1.468e-001 -5.500e-001
 1.082e+000  1.468e-001 -5.000e-001
 1.082e+000  1.468e-001 -4.500e-001
 1.082e+000  1.468e-001 -4.000e-001
 1.082e+000  1.468e-001 -3.500e-001
 1.082e+000  1.468e-001 -3.000e-001
 1.082e+000  1.468e-001 -2.500e-001
 1.082e+000  1.468e-001 -2.000e-001
 1.082e+000  1.468e-001 -1.500e-001
 1.082e+000  1.468e-001 -1.000e-001
 1.082e+000  1.468e-001 -5.000e-002
 1.068e+000  1.942e-001 -9.500e-001
 1.068e+000  1.942e-001 -9.000e-001
 1.068e+000  1.942e-001 -8.500e-001
 1.068e+000  1.942e-001 -8.000e-001
 1.068e+000  1.942e-001 -7.500e-001
 1.068e+000  1.942e-001 -7.000e-001
 1.068e+000  1.942e-001 -6.500e-001
 1.068e+000  1.942e-001 -6.000e-001
 1.068e+000  1.942e-001 -5.500e-001
 1.068e+000  1.942e-001 -5.000e-001
 1.068e+000  1.942e-001 -4.500e-001
 1.068e+000  1.942e-001 -4.000e-001
 1.068e+000  1.942e-001 -3.500e-001
 1.068e+000  1.942e-001 -3.000e-001
 1.068e+000  1.942e-001 -2.500e-001
 1.068e+000  1.942e-001 -2.000e-001
 1.068e+000  1.942e-001 -1.500e-001
 1.068e+000  1.942e-001 -1.000e-001
 1.068e+000  1.942e-001 -5.000e-002
 1.051e+000  2.404e-001 -9.500e-001
 1.051e+000  2.404e-001 -9.000e-001
 1.051e+000  2.404e-001 -8.500e-001
 1.051e+000  2.404e-001 -8.000e-001
 1.051e+000  2.404e-001 -7.500e-001
 1.051e+000  2.404e-001 -7.000e-001
 1.051e+000  2.404e-001 -6.500e-001
 1.051e+000  2.404e-001 -6.000e-001
 1.051e+000  2.404e-001 -5.500e-001
 1.051e+000  2.404e-001 -5.000e-001
 1.051e+000  2.404e-001 -4.500e-001
 1.051e+000  2.404e-001 -4.000e-001
 1.051e+000  2.404e-001 -3.500e-001
 1.051e+000  2.404e-001 -3.000e-001
 1.051e+000  2.404e-001 -2.500e-001
 1.051e+000  2.404e-001 -2.000e-001
 1.051e+000  2.404e-001 -1.500e-001
 1.051e+000  2.404e-001 -1.000e-001
 1.051e+000  2.404e-001 -5.000e-002
 1.030e+000  2.853e-001 -9.500e-001
 1.030e+000  2.853e-001 -9.000e-001
 1.030e+000  2.853e-001 -8.500e-001
 1.030e+000  2.853e-001 -8.000e-001
 1.030e+000  2.853e-001 -7.500e-001
 1.030e+000  2.853e-001 -7.000e-001
 1.030e+000  2.853e-001 -6.500e-001
 1.030e+000  2.853e-001 -6.000e-001
 1.030e+000  2.853e-001 -5.500e-001
 1.030e+000  2.853e-001 -5.000e-001
 1.030e+000  2.853e-001 -4.500e-001
 1.030e+000  2.853e-001 -4.000e-001
 1.030e+000  2.853e-001 -3.500e-001
 1.030e+000  2.853e-001 -3.000e-001
 1.030e+000  2.853e-001 -2.500e-001
 1.030e+000  2.853e-001 -2.000e-001
 1.030e+000  2.853e-001 -1.500e-001
 1.030e+000  2.853e-001 -1.000e-001
 1.030e+000  2.853e-001 -5.000e-002
 1.006e+000  3.285e-001 -9.500e-001
 1.006e+000  3.285e-001 -9.000e-001
 1.006e+000  3.285e-001 -8.500e-001
 1.006e+000  3.285e-001 -8.000e-001
 1.006e+000  3.285e-001 -7.500e-001
 1.006e+000  3.285e-001 -7.000e-001
 1.006e+000  3.285e-001 -6.500e-001
 1.006e+000  3.285e-001 -6.000e-001
 1.006e+000  3.285e-001 -5.500e-001
 1.006e+000  3.285e-001 -5.000e-001
 1.006e+000  3.285e-001 -4.500e-001
 1.006e+000  3.285e-001 -4.000e-001
 1.006e+000  3.285e-001 -3.500e-001
 1.006e+000  3.285e-001 -3.000e-001
 1.006e+000  3.285e-001 -2.500e-001
 1.006e+000  3.285e-001 -2.000e-001
 1.006e+000  3.285e-001 -1.500e-001
 1.006e+000  3.285e-001 -1.000e-001
 1.006e+000  3.285e-001 -5.000e-002
 9.793e-001  3.699e-001 -9.500e-001
 9.793e-001  3.699e-001 -9.000e-001
 9.793e-001  3.699e-001 -8.500e-001
 9.793e-001  3.699e-001 -8.000e-001
 9.793e-001  3.699e-001 -7.500e-001
 9.793e-001  3.699e-001 -7.000e-001
 9.793e-001  3.699e-001 -6.500e-001
 9.793e-001  3.699e-001 -6.000e-001
 9.793e-001  3.699e-001 -5.500e-001
 9.793e-001  3.699e-001 -5.000e-001
 9.793e-001  3.699e-001 -4.500e-001
 9.793e-001  3.699e-001 -4.000e-001
 9.793e-001  3.699e-001 -3.500e-001
 9.793e-001  3.699e-001 -3.000e-001
 9.793e-001  3.699e-001 -2.500e-001
 9.793e-001  3.699e-001 -2.000e-001
 9.793e-001  3.699e-001 -1.500e-001
 9.793e-001  3.699e-001 -1.000e-001
 9.793e-001  3.699e-001 -5.000e-002
 9.497e-001  4.095e-001 -9.500e-001
 9.497e-001  4.095e-001 -9.000e-001
 9.497e-001  4.095e-001 -8.500e-001
 9.497e-001  4.095e-001 -8.000e-001
 9.497e-001  4.095e-001 -7.500e-001
 9.497e-001  4.095e-001 -7.000e-001
 9.497e-001  4.095e-001 -6.500e-001
 9.497e-001  4.095e-001 -6.000e-001
 9.497e-001  4.095e-001 -5.500e-001
 9.497e-001  4.095e-001 -5.000e-001
 9.497e-001  4.095e-001 -4.500e-001
 9.497e-001  4.095e-001 -4.000e-001
 9.497e-001  4.095e-001 -3.500e-001
 9.497e-001  4.095e-001 -3.000e-001
 9.497e-001  4.095e-001 -2.500e-001
 9.497e-001  4.095e-001 -2.000e-001
 9.497e-001  4.095e-001 -1.500e-001
 9.497e-001  4.095e-001 -1.000e-001
 9.497e-001  4.095e-001 -5.000e-002
 9.178e-001  4.471e-001 -9.500e-001
 9.178e-001  4.471e-001 -9.000e-001
 9.178e-001  4.471e-001 -8.500e-001
 9.178e-001  4.471e-001 -8.000e-001
 9.178e-001  4.471e-001 -7.500e-001
 9.178e-001  4.471e-001 -7.000e-001
 9.178e-001  4.471e-001 -6.500e-001
 9.178e-001  4.471e-001 -6.000e-001
 9.178e-001  4.471e-001 -5.500e-001
 9.178e-001  4.471e-001 -5.000e-001
 9.178e-001  4.471e-001 -4.500e-001
 9.178e-001  4.471e-001 -4.000e-001
 9.178e-001  4.471e-001 -3.500e-001
 9.178e-001  4.471e-001 -3.000e-001
 9.178e-001  4.471e-001 -2.500e-001
 9.178e-001  4.471e-001 -2.000e-001
 9.178e-001  4.471e-001 -1.500e-001
 9.178e-001  4.471e-001 -1.000e-001
 9.178e-001  4.471e-001 -5.000e-002
 8.837e-001  4.829e-001 -9.500e-001
 8.837e-001  4.829e-001 -9.000e-001
 8.837e-001  4.829e-001 -8.500e-001
 8.837e-001  4.829e-001 -8.000e-001
 8.837e-001  4.829e-001 -7.500e-001
 8.837e-001  4.829e-001 -7.000e-001
 8.837e-001  4.829e-001 -6.500e-001
 8.837e-001  4.829e-001 -6.000e-001
 8.837e-001  4.829e-001 -5.500e-001
 8.837e-001  4.829e-001 -5.000e-001
 8.837e-001  4.829e-001 -4.500e-001
 8.837e-001  4.829e-001 -4.000e-001
 8.837e-001  4.829e-001 -3.500e-001
 8.837e-001  4.829e-001 -3.000e-001
 8.837e-001  4.829e-001 -2.500e-001
 8.837e-001  4.829e-001 -2.000e-001
 8.837e-001  4.829e-001 -1.500e-001
 8.837e-001  4.829e-001 -1.000e-001
 8.837e-001  4.829e-001 -5.000e-002
 8.478e-001  5.168e-001 -9.500e-001
 8.478e-001  5.168e-001 -9.000e-001
 8.478e-001  5.168e-001 -8.500e-001
 8.478e-001  5.168e-001 -8.000e-001
 8.478e-001  5.168e-001 -7.500e-001
 8.478e-001  5.168e-001 -7.000e-001
 8.478e-001  5.168e-001 -6.500e-001
 8.478e-001  5.168e-001 -6.000e-001
 8.478e-001  5.168e-001 -5.500e-001
 8.478e-001  5.168e-001 -5.000e-001
 8.478e-001  5.168e-001 -4.500e-001
 8.478e-001  5.168e-001 -4.000e-001
 8.478e-001  5.168e-001 -3.500e-001
 8.478e-001  5.168e-001 -3.000e-001
 8.478e-001  5.168e-001 -2.500e-001
 8.478e-001  5.168e-001 -2.000e-001
 8.478e-001  5.168e-001 -1.500e-001
 8.478e-001  5.168e-001 -1.000e-001
 8.478e-001  5.168e-001 -5.000e-002
 8.102e-001  5.489e-001 -9.500e-001
 8.102e-001  5.489e-001 -9.000e-001
 8.102e-001  5.489e-001 -8.500e-001
 8.102e-001  5.489e-001 -8.000e-001
 8.102e-001  5.489e-001 -7.500e-001
 8.102e-001  5.489e-001 -7.000e-001
 8.102e-001  5.489e-001 -6.500e-001
 8.102e-001  5.489e-001 -6.000e-001
 8.102e-001  5.489e-001 -5.500e-001
 8.102e-001  5.489e-001 -5.000e-001
 8.102e-001  5.489e-001 -4.500e-001
 8.102e-001  5.489e-001 -4.000e-001
 8.102e-001  5.489e-001 -3.500e-001
 8.102e-001  5.489e-001 -3.000e-001
 8.102e-001  5.489e-001 -2.500e-001
 8.102e-001  5.489e-001 -2.000e-001
 8.102e-001  5.489e-001 -1.500e-001
 8.102e-001  5.489e-001 -1.000e-001
 8.102e-001  5.489e-001 -5.000e-002
 7.713e-001  5.793e-001 -9.500e-001
 7.713e-001  5.793e-001 -9.000e-001
 7.713e-001  5.793e-001 -8.500e-001
 7.713e-001  5.793e-001 -8.000e-001
 7.713e-001  5.793e-001 -7.500e-001
 7.713e-001  5.793e-001 -7.000e-001
 7.713e-001  5.793e-001 -6.500e-001
 7.713e-001  5.793e-001 -6.000e-001
 7.713e-001  5.793e-001 -5.500e-001
 7.713e-001  5.793e-001 -5.000e-001
 7.713e-001  5.793e-001 -4.500e-001
 7.713e-001  5.793e-001 -4.000e-001
 7.713e-001  5.793e-001 -3.500e-001
 7.713e-001  5.793e-001 -3.000e-001
 7.713e-001  5.793e-001 -2.500e-001
 7.713e-001  5.793e-001 -2.000e-001
 7.713e-001  5.793e-001 -1.500e-001
 7.713e-001  5.793e-001 -1.000e-001
 7.713e-001  5.793e-001 -5.000e-002
 7.312e-001  6.082e-001 -9.500e-001
 7.312e-001  6.082e-001 -9.000e-001
 7.312e-001  6.082e-001 -8.500e-001
 7.312e-001  6.082e-001 -8.000e-001
 7.312e-001  6.082e-001 -7.500e-001
 7.312e-001  6.082e-001 -7.000e-001
 7.312e-001  6.082e-001 -6.500e-001
 7.312e-001  6.082e-001 -6.000e-001
 7.312e-001  6.082e-001 -5.500e-001
 7.312e-001  6.082e-001 -5.000e-001
 7.312e-001  6.082e-001 -4.500e-001
 7.312e-001  6.082e-001 -4.000e-001
 7.312e-001  6.082e-001 -3.500e-001
 7.312e-001  6.082e-001 -3.000e-001
 7.312e-001  6.082e-001 -2.500e-001
 7.312e-001  6.082e-001 -2.000e-001
 7.312e-001  6.082e-001 -1.500e-001
 7.312e-001  6.082e-001 -1.000e-001
 7.312e-001  6.082e-001 -5.000e-002
 6.903e-001  6.358e-001 -9.500e-001
 6.903e-001  6.358e-001 -9.000e-001
 6.903e-001  6.358e-001 -8.500e-001
 6.903e-001  6.358e-001 -8.000e-001
 6.903e-001  6.358e-001 -7.500e-001
 6.903e-001  6.358e-001 -7.000e-001
 6.903e-001  6.358e-001 -6.500e-001
 6.903e-001  6.358e-001 -6.000e-001
 6.903e-001  6.358e-001 -5.500e-001
 6.903e-001  6.358e-001 -5.000e-001
 6.903e-001  6.358e-001 -4.500e-001
 6.903e-001  6.358e-001 -4.000e-001
 6.903e-001  6.358e-001 -3.500e-001
 6.903e-001  6.358e-001 -3.000e-001
 6.903e-001  6.358e-001 -2.500e-001
 6.903e-001  6.358e-001 -2.000e-001
 6.903e-001  6.358e-001 -1.500e-001
 6.903e-001  6.358e-001 -1.000e-001
 6.903e-001  6.358e-001 -5.000e-002
 6.486e-001  6.624e-001 -9.500e-001
 6.486e-001  6.624e-001 -9.000e-001
 6.486e-001  6.624e-001 -8.500e-001
 6.486e-001  6.624e-001 -8.000e-001
 6.486e-001  6.624e-001 -7.500e-001
 6.486e-001  6.624e-001 -7.000e-001
 6.486e-001  6.624e-001 -6.500e-001
 6.486e-001  6.624e-001 -6.000e-001
 6.486e-001  6.624e-001 -5.500e-001
 6.486e-001  6.624e-001 -5.000e-001
 6.486e-001  6.624e-001 -4.500e-001
 6.486e-001  6.624e-001 -4.000e-001
 6.486e-001  6.624e-001 -3.500e-001
 6.486e-001  6.624e-001 -3.000e-001
 6.486e-001  6.624e-001 -2.500e-001
 6.486e-001  6.624e-001 -2.000e-001
 6.486e-001  6.624e-001 -1.500e-001
 6.486e-001  6.624e-001 -1.000e-001
 6.486e-001  6.624e-001 -5.000e-002
 6.065e-001  6.882e-001 -9.500e-001
 6.065e-001  6.882e-001 -9.000e-001
 6.065e-001  6.882e-001 -8.500e-001
 6.065e-001  6.882e-001 -8.000e-001
 6.065e-001  6.882e-001 -7.500e-001
 6.065e-001  6.882e-001 -7.000e-001
 6.065e-001  6.882e-001 -6.500e-001
 6.065e-001  6.882e-001 -6.000e-001
 6.065e-001  6.882e-001 -5.500e-001
 6.065e-001  6.882e-001 -5.000e-001
 6.065e-001  6.882e-001 -4.500e-001
 6.065e-001  6.882e-001 -4.000e-001
 6.065e-001  6.882e-001 -3.500e-001
 6.065e-001  6.882e-001 -3.000e-001
 6.065e-001  6.882e-001 -2.500e-001
 6.065e-001  6.882e-001 -2.000e-001
 6.065e-001  6.882e-001 -1.500e-001
 6.065e-001  6.882e-001 -1.000e-001
 6.065e-001  6.882e-001 -5.000e-002
 5.640e-001  7.133e-001 -9.500e-001
 5.640e-001  7.133e-001 -9.000e-001
 5.640e-001  7.133e-001 -8.500e-001
 5.640e-001  7.133e-001 -8.000e-001
 5.640e-001  7.133e-001 -7.500e-001
 5.640e-001  7.133e-001 -7.000e-001
 5.640e-001  7.133e-001 -6.500e-001
 5.640e-001  7.133e-001 -6.000e-001
 5.640e-001  7.133e-001 -5.500e-001
 5.640e-001  7.133e-001 -5.000e-001
 5.640e-001  7.133e-001 -4.500e-001
 5.640e-001  7.133e-001 -4.000e-001
 5.640e-001  7.133e-001 -3.500e-001
 5.640e-001  7.133e-001 -3.000e-001
 5.640e-001  7.133e-001 -2.500e-001
 5.640e-001  7.133e-001 -2.000e-001
 5.640e-001  7.133e-001 -1.500e-001
 5.640e-001  7.133e-001 -1.000e-001
 5.640e-001  7.133e-001 -5.000e-002
 5.213e-001  7.382e-001 -9.500e-001
 5.213e-001  7.382e-001 -9.000e-001
 5.213e-001  7.382e-001 -8.500e-001
 5.213e-001  7.382e-001 -8.000e-001
 5.213e-001  7.382e-001 -7.500e-001
 5.213e-001  7.382e-001 -7.000e-001
 5.213e-001  7.382e-001 -6.500e-001
 5.213e-001  7.382e-001 -6.000e-001
 5.213e-001  7.382e-001 -5.500e-001
 5.213e-001  7.382e-001 -5.000e-001
 5.213e-001  7.382e-001 -4.500e-001
 5.213e-001  7.382e-001 -4.000e-001
 5.213e-001  7.382e-001 -3.500e-001
 5.213e-001  7.382e-001 -3.000e-001
 5.213e-001  7.382e-001 -2.500e-001
 5.213e-001  7.382e-001 -2.000e-001
 5.213e-001  7.382e-001 -1.500e-001
 5.213e-001  7.382e-001 -1.000e-001
 5.213e-001  7.382e-001 -5.000e-002
 4.785e-001  7.629e-001 -9.500e-001
 4.785e-001  7.629e-001 -9.000e-001
 4.785e-001  7.629e-001 -8.500e-001
 4.785e-001  7.629e-001 -8.000e-001
 4.785e-001  7.629e-001 -7.500e-001
 4.785e-001  7.629e-001 -7.000e-001
 4.785e-001  7.629e-001 -6.500e-001
 4.785e-001  7.629e-001 -6.000e-001
 4.785e-001  7.629e-001 -5.500e-001
 4.785e-001  7.629e-001 -5.000e-001
 4.785e-001  7.629e-001 -4.500e-001
 4.785e-001  7.629e-001 -4.000e-001
 4.785e-001  7.629e-001 -3.500e-001
 4.785e-001  7.629e-001 -3.000e-001
 4.785e-001  7.629e-001 -2.500e-001
 4.785e-001  7.629e-001 -2.000e-001
 4.785e-001  7.629e-001 -1.500e-001
 4.785e-001  7.629e-001 -1.000e-001
 4.785e-001  7.629e-001 -5.000e-002
 4.358e-001  7.876e-001 -9.500e-001
 4.358e-001  7.876e-001 -9.000e-001
 4.358e-001  7.876e-001 -8.500e-001
 4.358e-001  7.876e-001 -8.000e-001
 4.358e-001  7.876e-001 -7.500e-001
 4.358e-001  7.876e-001 -7.000e-001
 4.358e-001  7.876e-001 -6.500e-001
 4.358e-001  7.876e-001 -6.000e-001
 4.358e-001  7.876e-001 -5.500e-001
 4.358e-001  7.876e-001 -5.000e-001
 4.358e-001  7.876e-001 -4.500e-001
 4.358e-001  7.876e-001 -4.000e-001
 4.358e-001  7.876e-001 -3.500e-001
 4.358e-001  7.876e-001 -3.000e-001
 4.358e-001  7.876e-001 -2.500e-001
 4.358e-001  7.876e-001 -2.000e-001
 4.358e-001  7.876e-001 -1.500e-001
 4.358e-001  7.876e-001 -1.000e-001
 4.358e-001  7.876e-001 -5.000e-002
 3.930e-001  8.123e-001 -9.500e-001
 3.930e-001  8.123e-001 -9.000e-001
 3.930e-001  8.123e-001 -8.500e-001
 3.930e-001  8.123e-001 -8.000e-001
 3.930e-001  8.123e-001 -7.500e-001
 3.930e-001  8.123e-001 -7.000e-001
 3.930e-001  8.123e-001 -6.500e-001
 3.930e-001  8.123e-001 -6.000e-001
 3.930e-001  8.123e-001 -5.500e-001
 3.930e-001  8.123e-001 -5.000e-001
 3.930e-001  8.123e-001 -4.500e-001
 3.930e-001  8.123e-001 -4.000e-001
 3.930e-001  8.123e-001 -3.500e-001
 3.930e-001  8.123e-001 -3.000e-001
 3.930e-001  8.123e-001 -2.500e-001
 3.930e-001  8.123e-001 -2.000e-001
 3.930e-001  8.123e-001 -1.500e-001
 3.930e-001  8.123e-001 -1.000e-001
 3.930e-001  8.123e-001 -5.000e-002
 3.501e-001  8.369e-001 -9.500e-001
 3.501e-001  8.369e-001 -9.000e-001
 3.501e-001  8.369e-001 -8.500e-001
 3.501e-001  8.369e-001 -8.000e-001
 3.501e-001  8.369e-001 -7.500e-001
 3.501e-001  8.369e-001 -7.000e-001
 3.501e-001  8.369e-001 -6.500e-001
 3.501e-001  8.369e-001 -6.000e-001
 3.501e-001  8.369e-001 -5.500e-001
 3.501e-001  8.369e-001 -5.000e-001
 3.501e-001  8.369e-001 -4.500e-001
 3.501e-001  8.369e-001 -4.000e-001
 3.501e-001  8.369e-001 -3.500e-001
 3.501e-001  8.369e-001 -3.000e-001
 3.501e-001  8.369e-001 -2.500e-001
 3.501e-001  8.369e-001 -2.000e-001
 3.501e-001  8.369e-001 -1.500e-001
 3.501e-001  8.369e-001 -1.000e-001
 3.501e-001  8.369e-001 -5.000e-002
 3.071e-001  8.613e-001 -9.500e-001
 3.071e-001  8.613e-001 -9.000e-001
 3.071e-001  8.613e-001 -8.500e-001
 3.071e-001  8.613e-001 -8.000e-001
 3.071e-001  8.613e-001 -7.500e-001
 3.071e-001  8.613e-001 -7.000e-001
 3.071e-001  8.613e-001 -6.500e-001
 3.071e-001  8.613e-001 -6.000e-001
 3.071e-001  8.613e-001 -5.500e-001
 3.071e-001  8.613e-001 -5.000e-001
 3.071e-001  8.613e-001 -4.500e-001
 3.071e-001  8.613e-001 -4.000e-001
 3.071e-001  8.613e-001 -3.500e-001
 3.071e-001  8.613e-001 -3.000e-001
 3.071e-001  8.613e-001 -2.500e-001
 3.071e-001  8.613e-001 -2.000e-001
 3.071e-001  8.613e-001 -1.500e-001
 3.071e-001  8.613e-001 -1.000e-001
 3.071e-001  8.613e-001 -5.000e-002
 2.638e-001  8.851e-001 -9.500e-001
 2.638e-001  8.851e-001 -9.000e-001
 2.638e-001  8.851e-001 -8.500e-001
 2.638e-001  8.851e-001 -8.000e-001
 2.638e-001  8.851e-001 -7.500e-001
 2.638e-001  8.851e-001 -7.000e-001
 2.638e-001  8.851e-001 -6.500e-001
 2.638e-001  8.851e-001 -6.000e-001
 2.638e-001  8.851e-001 -5.500e-001
 2.638e-001  8.851e-001 -5.000e-001
 2.638e-001  8.851e-001 -4.500e-001
 2.638e-001  8.851e-001 -4.000e-001
 2.638e-001  8.851e-001 -3.500e-001
 2.638e-001  8.851e-001 -3.000e-001
 2.638e-001  8.851e-001 -2.500e-001
 2.638e-001  8.851e-001 -2.000e-001
 2.638e-001  8.851e-001 -1.500e-001
 2.638e-001  8.851e-001 -1.000e-001
 2.638e-001  8.851e-001 -5.000e-002
 2.202e-001  9.082e-001 -9.500e-001
 2.202e-001  9.082e-001 -9.000e-001
 2.202e-001  9.082e-001 -8.500e-001
 2.202e-001  9.082e-001 -8.000e-001
 2.202e-001  9.082e-001 -7.500e-001
 2.202e-001  9.082e-001 -7.000e-001
 2.202e-001  9.082e-001 -6.500e-001
 2.202e-001  9.082e-001 -6.000e-001
 2.202e-001  9.082e-001 -5.500e-001
 2.202e-001  9.082e-001 -5.000e-001
 2.202e-001  9.082e-001 -4.500e-001
 2.202e-001  9.082e-001 -4.000e-001
 2.202e-001  9.082e-001 -3.500e-001
 2.202e-001  9.082e-001 -3.000e-001
 2.202e-001  9.082e-001 -2.500e-001
 2.202e-001  9.082e-001 -2.000e-001
 2.202e-001  9.082e-001 -1.500e-001
 2.202e-001  9.082e-001 -1.000e-001
 2.202e-001  9.082e-001 -5.000e-002
 1.760e-001  9.303e-001 -9.500e-001
 1.760e-001  9.303e-001 -9.000e-001
 1.760e-001  9.303e-001 -8.500e-001
 1.760e-001  9.303e-001 -8.000e-001
 1.760e-001  9.303e-001 -7.500e-001
 1.760e-001  9.303e-001 -7.000e-001
 1.760e-001  9.303e-001 -6.500e-001
 1.760e-001  9.303e-001 -6.000e-001
 1.760e-001  9.303e-001 -5.500e-001
 1.760e-001  9.303e-001 -5.000e-001
 1.760e-001  9.303e-001 -4.500e-001
 1.760e-001  9.303e-001 -4.000e-001
 1.760e-001  9.303e-001 -3.500e-001
 1.760e-001  9.303e-001 -3.000e-001
 1.760e-001  9.303e-001 -2.500e-001
 1.760e-001  9.303e-001 -2.000e-001
 1.760e-001  9.303e-001 -1.500e-001
 1.760e-001  9.303e-001 -1.000e-001
 1.760e-001  9.303e-001 -5.000e-002
 1.311e-001  9.511e-001 -9.500e-001
 1.311e-001  9.511e-001 -9.000e-001
 1.311e-001  9.511e-001 -8.500e-001
 1.311e-001  9.511e-001 -8.000e-001
 1.311e-001  9.511e-001 -7.500e-001
 1.311e-001  9.511e-001 -7.000e-001
 1.311e-001  9.511e-001 -6.500e-001
 1.311e-001  9.511e-001 -6.000e-001
 1.311e-001  9.511e-001 -5.500e-001
 1.311e-001  9.511e-001 -5.000e-001
 1.311e-001  9.511e-001 -4.500e-001
 1.311e-001  9.511e-001 -4.000e-001
 1.311e-001  9.511e-001 -3.500e-001
 1.311e-001  9.511e-001 -3.000e-001
 1.311e-001  9.511e-001 -2.500e-001
 1.311e-001  9.511e-001 -2.000e-001
 1.311e-001  9.511e-001 -1.500e-001
 1.311e-001  9.511e-001 -1.000e-001
 1.311e-001  9.511e-001 -5.000e-002
 8.555e-002  9.702e-001 -9.500e-001
 8.555e-002  9.702e-001 -9.000e-001
 8.555e-002  9.702e-001 -8.500e-001
 8.555e-002  9.702e-001 -8.000e-001
 8.555e-002  9.702e-001 -7.500e-001
 8.555e-002  9.702e-001 -7.000e-001
 8.555e-002  9.702e-001 -6.500e-001
 8.555e-002  9.702e-001 -6.000e-001
 8.555e-002  9.702e-001 -5.500e-001
 8.555e-002  9.702e-001 -5.000e-001
 8.555e-002  9.702e-001 -4.500e-001
 8.555e-002  9.702e-001 -4.000e-001
 8.555e-002  9.702e-001 -3.500e-001
 8.555e-002  9.702e-001 -3.000e-001
 8.555e-002  9.702e-001 -2.500e-001
 8.555e-002  9.702e-001 -2.000e-001
 8.555e-002  9.702e-001 -1.500e-001
 8.555e-002  9.702e-001 -1.000e-001
 8.555e-002  9.702e-001 -5.000e-002
 3.924e-002  9.873e-001 -9.500e-001
 3.924e-002  9.873e-001 -9.000e-001
 3.924e-002  9.873e-001 -8.500e-001
 3.924e-002  9.873e-001 -8.000e-001
 3.924e-002  9.873e-001 -7.500e-001
 3.924e-002  9.873e-001 -7.000e-001
 3.924e-002  9.873e-001 -6.500e-001
 3.924e-002  9.873e-001 -6.000e-001
 3.924e-002  9.873e-001 -5.500e-001
 3.924e-002  9.873e-001 -5.000e-001
 3.924e-002  9.873e-001 -4.500e-001
 3.924e-002  9.873e-001 -4.000e-001
 3.924e-002  9.873e-001 -3.500e-001
 3.924e-002  9.873e-001 -3.000e-001
 3.924e-002  9.873e-001 -2.500e-001
 3.924e-002  9.873e-001 -2.000e-001
 3.924e-002  9.873e-001 -1.500e-001
 3.924e-002  9.873e-001 -1.000e-001
 3.924e-002  9.873e-001 -5.000e-002
-7.834e-003  1.002e+000 -9.500e-001
-7.834e-003  1.002e+000 -9.000e-001
-7.834e-003  1.002e+000 -8.500e-001
-7.834e-003  1.002e+000 -8.000e-001
-7.834e-003  1.002e+000 -7.500e-001
-7.834e-003  1.002e+000 -7.000e-001
-7.834e-003  1.002e+000 -6.500e-001
-7.834e-003  1.002e+000 -6.000e-001
-7.834e-003  1.002e+000 -5.500e-001
-7.834e-003  1.002e+000 -5.000e-001
-7.834e-003  1.002e+000 -4.500e-001
-7.834e-003  1.002e+000 -4.000e-001
-7.834e-003  1.002e+000 -3.500e-001
-7.834e-003  1.002e+000 -3.000e-001
-7.834e-003  1.002e+000 -2.500e-001
-7.834e-003  1.002e+000 -2.000e-001
-7.834e-003  1.002e+000 -1.500e-001
-7.834e-003  1.002e+000 -1.000e-001
-7.834e-003  1.002e+000 -5.000e-002
-5.562e-002  1.015e+000 -9.500e-001
-5.562e-002  1.015e+000 -9.000e-001
-5.562e-002  1.015e+000 -8.500e-001
-5.562e-002  1.015e+000 -8.000e-001
-5.562e-002  1.015e+000 -7.500e-001
-5.562e-002  1.015e+000 -7.000e-001
-5.562e-002  1.015e+000 -6.500e-001
-5.562e-002  1.015e+000 -6.000e-001
-5.562e-002  1.015e+000 -5.500e-001
-5.562e-002  1.015e+000 -5.000e-001
-5.562e-002  1.015e+000 -4.500e-001
-5.562e-002  1.015e+000 -4.000e-001
-5.562e-002  1.015e+000 -3.500e-001
-5.562e-002  1.015e+000 -3.000e-001
-5.562e-002  1.015e+000 -2.500e-001
-5.562e-002  1.015e+000 -2.000e-001
-5.562e-002  1.015e+000 -1.500e-001
-5.562e-002  1.015e+000 -1.000e-001
-5.562e-002  1.015e+000 -5.000e-002
-1.040e-001  1.025e+000 -9.500e-001
-1.040e-001  1.025e+000 -9.000e-001
-1.040e-001  1.025e+000 -8.500e-001
-1.040e-001  1.025e+000 -8.000e-001
-1.040e-001  1.025e+000 -7.500e-001
-1.040e-001  1.025e+000 -7.000e-001
-1.040e-001  1.025e+000 -6.500e-001
-1.040e-001  1.025e+000 -6.000e-001
-1.040e-001  1.025e+000 -5.500e-001
-1.040e-001  1.025e+000 -5.000e-001
-1.040e-001  1.025e+000 -4.500e-001
-1.040e-001  1.025e+000 -4.000e-001
-1.040e-001  1.025e+000 -3.500e-001
-1.040e-001  1.025e+000 -3.000e-001
-1.040e-001  1.025e+000 -2.500e-001
-1.040e-001  1.025e+000 -2.000e-001
-1.040e-001  1.025e+000 -1.500e-001
-1.040e-001  1.025e+000 -1.000e-001
-1.040e-001  1.025e+000 -5.000e-002
-1.530e-001  1.031e+000 -9.500e-001
-1.530e-001  1.031e+000 -9.000e-001
-1.530e-001  1.031e+000 -8.500e-001
-1.530e-001  1.031e+000 -8.000e-001
-1.530e-001  1.031e+000 -7.500e-001
-1.530e-001  1.031e+000 -7.000e-001
-1.530e-001  1.031e+000 -6.500e-001
-1.530e-001  1.031e+000 -6.000e-001
-1.530e-001  1.031e+000 -5.500e-001
-1.530e-001  1.031e+000 -5.000e-001
-1.530e-001  1.031e+000 -4.500e-001
-1.530e-001  1.031e+000 -4.000e-001
-1.530e-001  1.031e+000 -3.500e-001
-1.530e-001  1.031e+000 -3.000e-001