TITLE = "NODEELEMENT"
VARIABLES = "X", "Y", "Z"
ZONE N=     140, E=     117, F=FEPOINT, ET=QUADRILATERAL
 4.500e+001  0.000e+000 -8.000e+000
 4.258e+001  4.851e+000 -8.000e+000
 3.803e+001  8.020e+000 -8.000e+000
 3.292e+001  1.023e+001 -8.000e+000
 2.760e+001  1.185e+001 -8.000e+000
 2.216e+001  1.306e+001 -8.000e+000
 1.666e+001  1.394e+001 -8.000e+000
 1.113e+001  1.453e+001 -8.000e+000
 5.572e+000  1.489e+001 -8.000e+000
 5.569e-003  1.500e+001 -8.000e+000
 4.500e+001  0.000e+000 -6.000e+000
 4.258e+001  4.851e+000 -6.000e+000
 3.803e+001  8.020e+000 -6.000e+000
 3.292e+001  1.023e+001 -6.000e+000
 2.760e+001  1.185e+001 -6.000e+000
 2.216e+001  1.306e+001 -6.000e+000
 1.666e+001  1.394e+001 -6.000e+000
 1.113e+001  1.453e+001 -6.000e+000
 5.572e+000  1.489e+001 -6.000e+000
 5.569e-003  1.500e+001 -6.000e+000
 4.500e+001  0.000e+000 -4.000e+000
 4.258e+001  4.851e+000 -4.000e+000
 3.803e+001  8.020e+000 -4.000e+000
 3.292e+001  1.023e+001 -4.000e+000
 2.760e+001  1.185e+001 -4.000e+000
 2.216e+001  1.306e+001 -4.000e+000
 1.666e+001  1.394e+001 -4.000e+000
 1.113e+001  1.453e+001 -4.000e+000
 5.572e+000  1.489e+001 -4.000e+000
 5.569e-003  1.500e+001 -4.000e+000
 4.500e+001  0.000e+000 -2.000e+000
 4.258e+001  4.851e+000 -2.000e+000
 3.803e+001  8.020e+000 -2.000e+000
 3.292e+001  1.023e+001 -2.000e+000
 2.760e+001  1.185e+001 -2.000e+000
 2.216e+001  1.306e+001 -2.000e+000
 1.666e+001  1.394e+001 -2.000e+000
 1.113e+001  1.453e+001 -2.000e+000
 5.572e+000  1.489e+001 -2.000e+000
 5.569e-003  1.500e+001 -2.000e+000
 4.500e+001  0.000e+000  0.000e+000
 4.258e+001  4.851e+000  0.000e+000
 3.803e+001  8.020e+000  0.000e+000
 3.292e+001  1.023e+001  0.000e+000
 2.760e+001  1.185e+001  0.000e+000
 2.216e+001  1.306e+001  0.000e+000
 1.666e+001  1.394e+001  0.000e+000
 1.113e+001  1.453e+001  0.000e+000
 5.572e+000  1.489e+001  0.000e+000
 5.569e-003  1.500e+001  0.000e+000
 2.250e+001  0.000e+000 -8.000e+000
 2.000e+001  0.000e+000 -8.000e+000
 1.750e+001  0.000e+000 -8.000e+000
 1.500e+001  0.000e+000 -8.000e+000
 1.250e+001  0.000e+000 -8.000e+000
 1.000e+001  0.000e+000 -8.000e+000
 7.500e+000  0.000e+000 -8.000e+000
 5.000e+000  0.000e+000 -8.000e+000
 2.500e+000  0.000e+000 -8.000e+000
 0.000e+000  0.000e+000 -8.000e+000
 2.500e+001  0.000e+000 -8.000e+000
 2.251e+001  5.390e-001 -8.000e+000
 1.978e+001  8.911e-001 -8.000e+000
 1.699e+001  1.136e+000 -8.000e+000
 1.418e+001  1.317e+000 -8.000e+000
 1.135e+001  1.451e+000 -8.000e+000
 8.518e+000  1.549e+000 -8.000e+000
 5.681e+000  1.615e+000 -8.000e+000
 2.841e+000  1.654e+000 -8.000e+000
 6.188e-004  1.667e+000 -8.000e+000
 2.750e+001  0.000e+000 -8.000e+000
 2.502e+001  1.078e+000 -8.000e+000
 2.206e+001  1.782e+000 -8.000e+000
 1.898e+001  2.273e+000 -8.000e+000
 1.585e+001  2.633e+000 -8.000e+000
 1.270e+001  2.901e+000 -8.000e+000
 9.537e+000  3.097e+000 -8.000e+000
 6.362e+000  3.230e+000 -8.000e+000
 3.183e+000  3.308e+000 -8.000e+000
 1.238e-003  3.333e+000 -8.000e+000
 3.000e+001  0.000e+000 -8.000e+000
 2.753e+001  1.617e+000 -8.000e+000
 2.434e+001  2.673e+000 -8.000e+000
 2.097e+001  3.409e+000 -8.000e+000
 1.753e+001  3.950e+000 -8.000e+000
 1.405e+001  4.352e+000 -8.000e+000
 1.055e+001  4.646e+000 -8.000e+000
 7.043e+000  4.845e+000 -8.000e+000
 3.524e+000  4.962e+000 -8.000e+000
 1.856e-003  5.000e+000 -8.000e+000
 3.250e+001  0.000e+000 -8.000e+000
 3.004e+001  2.156e+000 -8.000e+000
 2.662e+001  3.565e+000 -8.000e+000
 2.297e+001  4.546e+000 -8.000e+000
 1.921e+001  5.266e+000 -8.000e+000
 1.541e+001  5.802e+000 -8.000e+000
 1.157e+001  6.194e+000 -8.000e+000
 7.724e+000  6.460e+000 -8.000e+000
 3.865e+000  6.616e+000 -8.000e+000
 2.475e-003  6.667e+000 -8.000e+000
 3.500e+001  0.000e+000 -8.000e+000
 3.255e+001  2.695e+000 -8.000e+000
 2.890e+001  4.456e+000 -8.000e+000
 2.496e+001  5.682e+000 -8.000e+000
 2.089e+001  6.583e+000 -8.000e+000
 1.676e+001  7.253e+000 -8.000e+000
 1.259e+001  7.743e+000 -8.000e+000
 8.405e+000  8.075e+000 -8.000e+000
 4.207e+000  8.270e+000 -8.000e+000
 3.094e-003  8.333e+000 -8.000e+000
 3.750e+001  0.000e+000 -8.000e+000
 3.506e+001  3.234e+000 -8.000e+000
 3.119e+001  5.347e+000 -8.000e+000
 2.695e+001  6.819e+000 -8.000e+000
 2.256e+001  7.899e+000 -8.000e+000
 1.811e+001  8.704e+000 -8.000e+000
 1.361e+001  9.291e+000 -8.000e+000
 9.086e+000  9.690e+000 -8.000e+000
 4.548e+000  9.924e+000 -8.000e+000
 3.713e-003  1.000e+001 -8.000e+000
 4.000e+001  0.000e+000 -8.000e+000
 3.757e+001  3.773e+000 -8.000e+000
 3.347e+001  6.238e+000 -8.000e+000
 2.894e+001  7.955e+000 -8.000e+000
 2.424e+001  9.216e+000 -8.000e+000
 1.946e+001  1.015e+001 -8.000e+000
 1.463e+001  1.084e+001 -8.000e+000
 9.767e+000  1.130e+001 -8.000e+000
 4.890e+000  1.158e+001 -8.000e+000
 4.332e-003  1.167e+001 -8.000e+000
 4.250e+001  0.000e+000 -8.000e+000
 4.007e+001  4.312e+000 -8.000e+000
 3.575e+001  7.129e+000 -8.000e+000
 3.093e+001  9.092e+000 -8.000e+000
 2.592e+001  1.053e+001 -8.000e+000
 2.081e+001  1.160e+001 -8.000e+000
 1.565e+001  1.239e+001 -8.000e+000
 1.045e+001  1.292e+001 -8.000e+000
 5.231e+000  1.323e+001 -8.000e+000
 4.951e-003  1.333e+001 -8.000e+000
       1        2       12       11
       2        3       13       12
       3        4       14       13
       4        5       15       14
       5        6       16       15
       6        7       17       16
       7        8       18       17
       8        9       19       18
       9       10       20       19
      11       12       22       21
      12       13       23       22
      13       14       24       23
      14       15       25       24
      15       16       26       25
      16       17       27       26
      17       18       28       27
      18       19       29       28
      19       20       30       29
      21       22       32       31
      22       23       33       32
      23       24       34       33
      24       25       35       34
      25       26       36       35
      26       27       37       36
      27       28       38       37
      28       29       39       38
      29       30       40       39
      31       32       42       41
      32       33       43       42
      33       34       44       43
      34       35       45       44
      35       36       46       45
      36       37       47       46
      37       38       48       47
      38       39       49       48
      39       40       50       49
      51       52       62       61
      52       53       63       62
      53       54       64       63
      54       55       65       64
      55       56       66       65
      56       57       67       66
      57       58       68       67
      58       59       69       68
      59       60       70       69
      61       62       72       71
      62       63       73       72
      63       64       74       73
      64       65       75       74
      65       66       76       75
      66       67       77       76
      67       68       78       77
      68       69       79       78
      69       70       80       79
      71       72       82       81
      72       73       83       82
      73       74       84       83
      74       75       85       84
      75       76       86       85
      76       77       87       86
      77       78       88       87
      78       79       89       88
      79       80       90       89
      81       82       92       91
      82       83       93       92
      83       84       94       93
      84       85       95       94
      85       86       96       95
      86       87       97       96
      87       88       98       97
      88       89       99       98
      89       90      100       99
      91       92      102      101
      92       93      103      102
      93       94      104      103
      94       95      105      104
      95       96      106      105
      96       97      107      106
      97       98      108      107
      98       99      109      108
      99      100      110      109
     101      102      112      111
     102      103      113      112
     103      104      114      113
     104      105      115      114
     105      106      116      115
     106      107      117      116
     107      108      118      117
     108      109      119      118
     109      110      120      119
     111      112      122      121
     112      113      123      122
     113      114      124      123
     114      115      125      124
     115      116      126      125
     116      117      127      126
     117      118      128      127
     118      119      129      128
     119      120      130      129
     121      122      132      131
     122      123      133      132
     123      124      134      133
     124      125      135      134
     125      126      136      135
     126      127      137      136
     127      128      138      137
     128      129      139      138
     129      130      140      139
     131      132        2        1
     132      133        3        2
     133      134        4        3
     134      135        5        4
     135      136        6        5
     136      137        7        6
     137      138        8        7
     138      139        9        8
     139      140       10        9
