TITLE = "NODEELEMENT"
VARIABLES = "X", "Y", "Z"
ZONE N=     800, E=     741, F=FEPOINT, ET=QUADRILATERAL
 4.500e+001  0.000e+000  0.000e+000
 4.484e+001  1.272e+000  0.000e+000
 4.438e+001  2.470e+000  0.000e+000
 4.371e+001  3.563e+000  0.000e+000
 4.288e+001  4.544e+000  0.000e+000
 4.195e+001  5.429e+000  0.000e+000
 4.094e+001  6.223e+000  0.000e+000
 3.988e+001  6.949e+000  0.000e+000
 3.878e+001  7.609e+000  0.000e+000
 3.765e+001  8.218e+000  0.000e+000
 3.649e+001  8.779e+000  0.000e+000
 3.531e+001  9.295e+000  0.000e+000
 3.412e+001  9.778e+000  0.000e+000
 3.292e+001  1.023e+001  0.000e+000
 3.170e+001  1.064e+001  0.000e+000
 3.048e+001  1.104e+001  0.000e+000
 2.925e+001  1.140e+001  0.000e+000
 2.801e+001  1.174e+001  0.000e+000
 2.676e+001  1.206e+001  0.000e+000
 2.552e+001  1.236e+001  0.000e+000
 2.426e+001  1.264e+001  0.000e+000
 2.300e+001  1.289e+001  0.000e+000
 2.174e+001  1.313e+001  0.000e+000
 2.047e+001  1.336e+001  0.000e+000
 1.920e+001  1.356e+001  0.000e+000
 1.793e+001  1.376e+001  0.000e+000
 1.666e+001  1.394e+001  0.000e+000
 1.539e+001  1.410e+001  0.000e+000
 1.411e+001  1.424e+001  0.000e+000
 1.283e+001  1.437e+001  0.000e+000
 1.155e+001  1.450e+001  0.000e+000
 1.027e+001  1.460e+001  0.000e+000
 8.990e+000  1.470e+001  0.000e+000
 7.707e+000  1.478e+001  0.000e+000
 6.424e+000  1.485e+001  0.000e+000
 5.140e+000  1.490e+001  0.000e+000
 3.856e+000  1.494e+001  0.000e+000
 2.571e+000  1.497e+001  0.000e+000
 1.286e+000  1.499e+001  0.000e+000
 1.286e-003  1.500e+001  0.000e+000
 4.342e+001  0.000e+000  0.000e+000
 4.325e+001  1.209e+000  0.000e+000
 4.280e+001  2.349e+000  0.000e+000
 4.214e+001  3.388e+000  0.000e+000
 4.134e+001  4.323e+000  0.000e+000
 4.043e+001  5.164e+000  0.000e+000
 3.946e+001  5.920e+000  0.000e+000
 3.843e+001  6.612e+000  0.000e+000
 3.737e+001  7.241e+000  0.000e+000
 3.628e+001  7.821e+000  0.000e+000
 3.516e+001  8.355e+000  0.000e+000
 3.403e+001  8.848e+000  0.000e+000
 3.288e+001  9.308e+000  0.000e+000
 3.172e+001  9.737e+000  0.000e+000
 3.054e+001  1.013e+001  0.000e+000
 2.936e+001  1.051e+001  0.000e+000
 2.818e+001  1.086e+001  0.000e+000
 2.698e+001  1.118e+001  0.000e+000
 2.578e+001  1.148e+001  0.000e+000
 2.458e+001  1.177e+001  0.000e+000
 2.337e+001  1.203e+001  0.000e+000
 2.216e+001  1.228e+001  0.000e+000
 2.094e+001  1.251e+001  0.000e+000
 1.972e+001  1.272e+001  0.000e+000
 1.850e+001  1.292e+001  0.000e+000
 1.728e+001  1.310e+001  0.000e+000
 1.605e+001  1.328e+001  0.000e+000
 1.482e+001  1.343e+001  0.000e+000
 1.359e+001  1.357e+001  0.000e+000
 1.236e+001  1.369e+001  0.000e+000
 1.113e+001  1.381e+001  0.000e+000
 9.894e+000  1.391e+001  0.000e+000
 8.660e+000  1.400e+001  0.000e+000
 7.424e+000  1.408e+001  0.000e+000
 6.188e+000  1.415e+001  0.000e+000
 4.951e+000  1.420e+001  0.000e+000
 3.714e+000  1.423e+001  0.000e+000
 2.477e+000  1.426e+001  0.000e+000
 1.239e+000  1.428e+001  0.000e+000
 1.239e-003  1.429e+001  0.000e+000
 4.184e+001  0.000e+000  0.000e+000
 4.166e+001  1.147e+000  0.000e+000
 4.121e+001  2.228e+000  0.000e+000
 4.057e+001  3.214e+000  0.000e+000
 3.979e+001  4.101e+000  0.000e+000
 3.891e+001  4.900e+000  0.000e+000
 3.797e+001  5.618e+000  0.000e+000
 3.698e+001  6.275e+000  0.000e+000
 3.596e+001  6.873e+000  0.000e+000
 3.490e+001  7.424e+000  0.000e+000
 3.383e+001  7.932e+000  0.000e+000
 3.274e+001  8.400e+000  0.000e+000
 3.163e+001  8.838e+000  0.000e+000
 3.051e+001  9.246e+000  0.000e+000
 2.938e+001  9.623e+000  0.000e+000
 2.825e+001  9.978e+000  0.000e+000
 2.711e+001  1.031e+001  0.000e+000
 2.596e+001  1.062e+001  0.000e+000
 2.480e+001  1.091e+001  0.000e+000
 2.364e+001  1.118e+001  0.000e+000
 2.248e+001  1.143e+001  0.000e+000
 2.131e+001  1.166e+001  0.000e+000
 2.014e+001  1.188e+001  0.000e+000
 1.897e+001  1.208e+001  0.000e+000
 1.779e+001  1.227e+001  0.000e+000
 1.662e+001  1.245e+001  0.000e+000
 1.544e+001  1.261e+001  0.000e+000
 1.426e+001  1.276e+001  0.000e+000
 1.307e+001  1.289e+001  0.000e+000
 1.189e+001  1.301e+001  0.000e+000
 1.070e+001  1.312e+001  0.000e+000
 9.517e+000  1.322e+001  0.000e+000
 8.329e+000  1.330e+001  0.000e+000
 7.141e+000  1.338e+001  0.000e+000
 5.952e+000  1.344e+001  0.000e+000
 4.762e+000  1.349e+001  0.000e+000
 3.572e+000  1.353e+001  0.000e+000
 2.382e+000  1.356e+001  0.000e+000
 1.192e+000  1.357e+001  0.000e+000
 1.192e-003  1.358e+001  0.000e+000
 4.026e+001  0.000e+000  0.000e+000
 4.007e+001  1.084e+000  0.000e+000
 3.962e+001  2.107e+000  0.000e+000
 3.900e+001  3.040e+000  0.000e+000
 3.824e+001  3.879e+000  0.000e+000
 3.740e+001  4.635e+000  0.000e+000
 3.649e+001  5.315e+000  0.000e+000
 3.553e+001  5.938e+000  0.000e+000
 3.454e+001  6.504e+000  0.000e+000
 3.353e+001  7.027e+000  0.000e+000
 3.250e+001  7.508e+000  0.000e+000
 3.145e+001  7.953e+000  0.000e+000
 3.038e+001  8.368e+000  0.000e+000
 2.931e+001  8.755e+000  0.000e+000
 2.822e+001  9.113e+000  0.000e+000
 2.713e+001  9.450e+000  0.000e+000
 2.603e+001  9.765e+000  0.000e+000
 2.493e+001  1.006e+001  0.000e+000
 2.382e+001  1.033e+001  0.000e+000
 2.271e+001  1.059e+001  0.000e+000
 2.159e+001  1.083e+001  0.000e+000
 2.047e+001  1.105e+001  0.000e+000
 1.934e+001  1.126e+001  0.000e+000
 1.822e+001  1.145e+001  0.000e+000
 1.709e+001  1.163e+001  0.000e+000
 1.596e+001  1.180e+001  0.000e+000
 1.483e+001  1.195e+001  0.000e+000
 1.369e+001  1.209e+001  0.000e+000
 1.255e+001  1.221e+001  0.000e+000
 1.142e+001  1.233e+001  0.000e+000
 1.028e+001  1.243e+001  0.000e+000
 9.139e+000  1.253e+001  0.000e+000
 7.999e+000  1.261e+001  0.000e+000
 6.857e+000  1.267e+001  0.000e+000
 5.716e+000  1.274e+001  0.000e+000
 4.573e+000  1.279e+001  0.000e+000
 3.431e+000  1.282e+001  0.000e+000
 2.288e+000  1.285e+001  0.000e+000
 1.144e+000  1.286e+001  0.000e+000
 1.144e-003  1.287e+001  0.000e+000
 3.868e+001  0.000e+000  0.000e+000
 3.848e+001  1.021e+000  0.000e+000
 3.804e+001  1.985e+000  0.000e+000
 3.743e+001  2.865e+000  0.000e+000
 3.669e+001  3.658e+000  0.000e+000
 3.588e+001  4.371e+000  0.000e+000
 3.500e+001  5.012e+000  0.000e+000
 3.408e+001  5.601e+000  0.000e+000
 3.313e+001  6.136e+000  0.000e+000
 3.216e+001  6.630e+000  0.000e+000
 3.117e+001  7.085e+000  0.000e+000
 3.016e+001  7.505e+000  0.000e+000
 2.914e+001  7.898e+000  0.000e+000
 2.810e+001  8.264e+000  0.000e+000
 2.706e+001  8.602e+000  0.000e+000
 2.602e+001  8.921e+000  0.000e+000
 2.496e+001  9.220e+000  0.000e+000
 2.390e+001  9.494e+000  0.000e+000
 2.284e+001  9.756e+000  0.000e+000
 2.177e+001  1.000e+001  0.000e+000
 2.070e+001  1.023e+001  0.000e+000
 1.962e+001  1.044e+001  0.000e+000
 1.855e+001  1.063e+001  0.000e+000
 1.747e+001  1.081e+001  0.000e+000
 1.638e+001  1.098e+001  0.000e+000
 1.530e+001  1.114e+001  0.000e+000
 1.421e+001  1.129e+001  0.000e+000
 1.313e+001  1.142e+001  0.000e+000
 1.204e+001  1.154e+001  0.000e+000
 1.095e+001  1.165e+001  0.000e+000
 9.854e+000  1.175e+001  0.000e+000
 8.762e+000  1.183e+001  0.000e+000
 7.668e+000  1.191e+001  0.000e+000
 6.574e+000  1.197e+001  0.000e+000
 5.480e+000  1.203e+001  0.000e+000
 4.385e+000  1.208e+001  0.000e+000
 3.289e+000  1.211e+001  0.000e+000
 2.193e+000  1.214e+001  0.000e+000
 1.097e+000  1.215e+001  0.000e+000
 1.097e-003  1.216e+001  0.000e+000
 3.711e+001  0.000e+000  0.000e+000
 3.689e+001  9.590e-001  0.000e+000
 3.645e+001  1.864e+000  0.000e+000
 3.586e+001  2.691e+000  0.000e+000
 3.515e+001  3.436e+000  0.000e+000
 3.436e+001  4.106e+000  0.000e+000
 3.352e+001  4.710e+000  0.000e+000
 3.263e+001  5.264e+000  0.000e+000
 3.172e+001  5.768e+000  0.000e+000
 3.079e+001  6.233e+000  0.000e+000
 2.983e+001  6.661e+000  0.000e+000
 2.887e+001  7.058e+000  0.000e+000
 2.789e+001  7.428e+000  0.000e+000
 2.690e+001  7.773e+000  0.000e+000
 2.590e+001  8.092e+000  0.000e+000
 2.490e+001  8.393e+000  0.000e+000
 2.389e+001  8.675e+000  0.000e+000
 2.288e+001  8.933e+000  0.000e+000
 2.186e+001  9.180e+000  0.000e+000
 2.084e+001  9.413e+000  0.000e+000
 1.981e+001  9.624e+000  0.000e+000
 1.878e+001  9.822e+000  0.000e+000
 1.775e+001  1.001e+001  0.000e+000
 1.671e+001  1.018e+001  0.000e+000
 1.568e+001  1.034e+001  0.000e+000
 1.464e+001  1.049e+001  0.000e+000
 1.360e+001  1.063e+001  0.000e+000
 1.256e+001  1.075e+001  0.000e+000
 1.152e+001  1.086e+001  0.000e+000
 1.047e+001  1.096e+001  0.000e+000
 9.430e+000  1.106e+001  0.000e+000
 8.384e+000  1.114e+001  0.000e+000
 7.338e+000  1.121e+001  0.000e+000
 6.291e+000  1.127e+001  0.000e+000
 5.243e+000  1.133e+001  0.000e+000
 4.196e+000  1.137e+001  0.000e+000
 3.147e+000  1.140e+001  0.000e+000
 2.099e+000  1.143e+001  0.000e+000
 1.050e+000  1.144e+001  0.000e+000
 1.050e-003  1.145e+001  0.000e+000
 3.553e+001  0.000e+000  0.000e+000
 3.530e+001  8.964e-001  0.000e+000
 3.487e+001  1.743e+000  0.000e+000
 3.429e+001  2.517e+000  0.000e+000
 3.360e+001  3.215e+000  0.000e+000
 3.284e+001  3.842e+000  0.000e+000
 3.203e+001  4.407e+000  0.000e+000
 3.119e+001  4.927e+000  0.000e+000
 3.031e+001  5.400e+000  0.000e+000
 2.942e+001  5.836e+000  0.000e+000
 2.850e+001  6.238e+000  0.000e+000
 2.758e+001  6.610e+000  0.000e+000
 2.664e+001  6.958e+000  0.000e+000
 2.570e+001  7.282e+000  0.000e+000
 2.474e+001  7.582e+000  0.000e+000
 2.378e+001  7.864e+000  0.000e+000
 2.282e+001  8.129e+000  0.000e+000
 2.185e+001  8.372e+000  0.000e+000
 2.088e+001  8.604e+000  0.000e+000
 1.990e+001  8.823e+000  0.000e+000
 1.892e+001  9.022e+000  0.000e+000
 1.794e+001  9.208e+000  0.000e+000
 1.695e+001  9.383e+000  0.000e+000
 1.596e+001  9.544e+000  0.000e+000
 1.497e+001  9.693e+000  0.000e+000
 1.398e+001  9.834e+000  0.000e+000
 1.299e+001  9.965e+000  0.000e+000
 1.200e+001  1.008e+001  0.000e+000
 1.100e+001  1.019e+001  0.000e+000
 1.000e+001  1.028e+001  0.000e+000
 9.005e+000  1.037e+001  0.000e+000
 8.007e+000  1.045e+001  0.000e+000
 7.007e+000  1.052e+001  0.000e+000
 6.007e+000  1.057e+001  0.000e+000
 5.007e+000  1.063e+001  0.000e+000
 4.007e+000  1.067e+001  0.000e+000
 3.005e+000  1.069e+001  0.000e+000
 2.004e+000  1.072e+001  0.000e+000
 1.003e+000  1.073e+001  0.000e+000
 1.002e-003  1.074e+001  0.000e+000
 3.395e+001  0.000e+000  0.000e+000
 3.371e+001  8.339e-001  0.000e+000
 3.328e+001  1.622e+000  0.000e+000
 3.271e+001  2.342e+000  0.000e+000
 3.205e+001  2.993e+000  0.000e+000
 3.132e+001  3.578e+000  0.000e+000
 3.055e+001  4.105e+000  0.000e+000
 2.974e+001  4.590e+000  0.000e+000
 2.890e+001  5.032e+000  0.000e+000
 2.804e+001  5.439e+000  0.000e+000
 2.717e+001  5.814e+000  0.000e+000
 2.629e+001  6.162e+000  0.000e+000
 2.540e+001  6.488e+000  0.000e+000
 2.449e+001  6.791e+000  0.000e+000
 2.358e+001  7.071e+000  0.000e+000
 2.267e+001  7.336e+000  0.000e+000
 2.175e+001  7.584e+000  0.000e+000
 2.082e+001  7.811e+000  0.000e+000
 1.990e+001  8.028e+000  0.000e+000
 1.897e+001  8.233e+000  0.000e+000
 1.803e+001  8.420e+000  0.000e+000
 1.709e+001  8.594e+000  0.000e+000
 1.615e+001  8.758e+000  0.000e+000
 1.521e+001  8.908e+000  0.000e+000
 1.427e+001  9.048e+000  0.000e+000
 1.332e+001  9.180e+000  0.000e+000
 1.238e+001  9.303e+000  0.000e+000
 1.143e+001  9.414e+000  0.000e+000
 1.048e+001  9.511e+000  0.000e+000
 9.531e+000  9.600e+000  0.000e+000
 8.581e+000  9.684e+000  0.000e+000
 7.629e+000  9.757e+000  0.000e+000
 6.677e+000  9.819e+000  0.000e+000
 5.724e+000  9.873e+000  0.000e+000
 4.771e+000  9.923e+000  0.000e+000
 3.818e+000  9.961e+000  0.000e+000
 2.864e+000  9.986e+000  0.000e+000
 1.910e+000  1.001e+001  0.000e+000
 9.553e-001  1.002e+001  0.000e+000
 9.551e-004  1.003e+001  0.000e+000
 3.237e+001  0.000e+000  0.000e+000
 3.212e+001  7.714e-001  0.000e+000
 3.169e+001  1.501e+000  0.000e+000
 3.114e+001  2.168e+000  0.000e+000
 3.051e+001  2.771e+000  0.000e+000
 2.981e+001  3.313e+000  0.000e+000
 2.906e+001  3.802e+000  0.000e+000
 2.829e+001  4.253e+000  0.000e+000
 2.749e+001  4.664e+000  0.000e+000
 2.667e+001  5.042e+000  0.000e+000
 2.584e+001  5.391e+000  0.000e+000
 2.500e+001  5.715e+000  0.000e+000
 2.415e+001  6.018e+000  0.000e+000
 2.329e+001  6.299e+000  0.000e+000
 2.242e+001  6.561e+000  0.000e+000
 2.155e+001  6.807e+000  0.000e+000
 2.068e+001  7.039e+000  0.000e+000
 1.980e+001  7.250e+000  0.000e+000
 1.892e+001  7.452e+000  0.000e+000
 1.803e+001  7.644e+000  0.000e+000
 1.714e+001  7.817e+000  0.000e+000
 1.625e+001  7.980e+000  0.000e+000
 1.536e+001  8.132e+000  0.000e+000
 1.446e+001  8.273e+000  0.000e+000
 1.356e+001  8.403e+000  0.000e+000
 1.266e+001  8.526e+000  0.000e+000
 1.177e+001  8.641e+000  0.000e+000
 1.086e+001  8.745e+000  0.000e+000
 9.963e+000  8.835e+000  0.000e+000
 9.059e+000  8.918e+000  0.000e+000
 8.156e+000  8.997e+000  0.000e+000
 7.252e+000  9.065e+000  0.000e+000
 6.346e+000  9.123e+000  0.000e+000
 5.441e+000  9.173e+000  0.000e+000
 4.535e+000  9.219e+000  0.000e+000
 3.629e+000  9.254e+000  0.000e+000
 2.722e+000  9.278e+000  0.000e+000
 1.815e+000  9.298e+000  0.000e+000
 9.080e-001  9.310e+000  0.000e+000
 9.078e-004  9.316e+000  0.000e+000
 3.079e+001  0.000e+000  0.000e+000
 3.053e+001  7.088e-001  0.000e+000
 3.011e+001  1.379e+000  0.000e+000
 2.957e+001  1.994e+000  0.000e+000
 2.896e+001  2.550e+000  0.000e+000
 2.829e+001  3.049e+000  0.000e+000
 2.758e+001  3.500e+000  0.000e+000
 2.684e+001  3.916e+000  0.000e+000
 2.608e+001  4.296e+000  0.000e+000
 2.530e+001  4.645e+000  0.000e+000
 2.451e+001  4.967e+000  0.000e+000
 2.371e+001  5.267e+000  0.000e+000
 2.290e+001  5.548e+000  0.000e+000
 2.209e+001  5.808e+000  0.000e+000
 2.126e+001  6.050e+000  0.000e+000
 2.044e+001  6.279e+000  0.000e+000
 1.961e+001  6.493e+000  0.000e+000
 1.877e+001  6.689e+000  0.000e+000
 1.793e+001  6.877e+000  0.000e+000
 1.709e+001  7.054e+000  0.000e+000
 1.625e+001  7.215e+000  0.000e+000
 1.541e+001  7.365e+000  0.000e+000
 1.456e+001  7.507e+000  0.000e+000
 1.371e+001  7.638e+000  0.000e+000
 1.286e+001  7.759e+000  0.000e+000
 1.201e+001  7.872e+000  0.000e+000
 1.115e+001  7.979e+000  0.000e+000
 1.030e+001  8.075e+000  0.000e+000
 9.444e+000  8.159e+000  0.000e+000
 8.588e+000  8.236e+000  0.000e+000
 7.731e+000  8.309e+000  0.000e+000
 6.874e+000  8.372e+000  0.000e+000
 6.016e+000  8.426e+000  0.000e+000
 5.158e+000  8.472e+000  0.000e+000
 4.299e+000  8.515e+000  0.000e+000
 3.440e+000  8.548e+000  0.000e+000
 2.580e+000  8.570e+000  0.000e+000
 1.720e+000  8.589e+000  0.000e+000
 8.607e-001  8.600e+000  0.000e+000
 8.605e-004  8.605e+000  0.000e+000
 2.921e+001  0.000e+000  0.000e+000
 2.894e+001  6.463e-001  0.000e+000
 2.852e+001  1.258e+000  0.000e+000
 2.800e+001  1.819e+000  0.000e+000
 2.741e+001  2.328e+000  0.000e+000
 2.677e+001  2.784e+000  0.000e+000
 2.609e+001  3.197e+000  0.000e+000
 2.539e+001  3.579e+000  0.000e+000
 2.467e+001  3.928e+000  0.000e+000
 2.393e+001  4.247e+000  0.000e+000
 2.318e+001  4.544e+000  0.000e+000
 2.242e+001  4.820e+000  0.000e+000
 2.165e+001  5.078e+000  0.000e+000
 2.088e+001  5.317e+000  0.000e+000
 2.010e+001  5.540e+000  0.000e+000
 1.932e+001  5.750e+000  0.000e+000
 1.854e+001  5.948e+000  0.000e+000
 1.775e+001  6.128e+000  0.000e+000
 1.695e+001  6.301e+000  0.000e+000
 1.616e+001  6.464e+000  0.000e+000
 1.536e+001  6.613e+000  0.000e+000
 1.456e+001  6.751e+000  0.000e+000
 1.376e+001  6.882e+000  0.000e+000
 1.296e+001  7.002e+000  0.000e+000
 1.215e+001  7.114e+000  0.000e+000
 1.135e+001  7.219e+000  0.000e+000
 1.054e+001  7.317e+000  0.000e+000
 9.734e+000  7.406e+000  0.000e+000
 8.926e+000  7.483e+000  0.000e+000
 8.116e+000  7.554e+000  0.000e+000
 7.307e+000  7.621e+000  0.000e+000
 6.497e+000  7.680e+000  0.000e+000
 5.686e+000  7.729e+000  0.000e+000
 4.874e+000  7.772e+000  0.000e+000
 4.063e+000  7.811e+000  0.000e+000
 3.251e+000  7.842e+000  0.000e+000
 2.438e+000  7.862e+000  0.000e+000
 1.626e+000  7.879e+000  0.000e+000
 8.134e-001  7.889e+000  0.000e+000
 8.132e-004  7.895e+000  0.000e+000
 2.763e+001  0.000e+000  0.000e+000
 2.734e+001  5.838e-001  0.000e+000
 2.693e+001  1.137e+000  0.000e+000
 2.643e+001  1.645e+000  0.000e+000
 2.586e+001  2.107e+000  0.000e+000
 2.525e+001  2.520e+000  0.000e+000
 2.461e+001  2.895e+000  0.000e+000
 2.394e+001  3.242e+000  0.000e+000
 2.325e+001  3.560e+000  0.000e+000
 2.256e+001  3.850e+000  0.000e+000
 2.185e+001  4.120e+000  0.000e+000
 2.113e+001  4.372e+000  0.000e+000
 2.041e+001  4.608e+000  0.000e+000
 1.968e+001  4.826e+000  0.000e+000
 1.894e+001  5.029e+000  0.000e+000
 1.821e+001  5.222e+000  0.000e+000
 1.746e+001  5.403e+000  0.000e+000
 1.672e+001  5.567e+000  0.000e+000
 1.597e+001  5.725e+000  0.000e+000
 1.522e+001  5.874e+000  0.000e+000
 1.447e+001  6.011e+000  0.000e+000
 1.372e+001  6.137e+000  0.000e+000
 1.296e+001  6.256e+000  0.000e+000
 1.221e+001  6.367e+000  0.000e+000
 1.145e+001  6.469e+000  0.000e+000
 1.069e+001  6.565e+000  0.000e+000
 9.930e+000  6.654e+000  0.000e+000
 9.169e+000  6.737e+000  0.000e+000
 8.407e+000  6.807e+000  0.000e+000
 7.645e+000  6.872e+000  0.000e+000
 6.882e+000  6.933e+000  0.000e+000
 6.119e+000  6.987e+000  0.000e+000
 5.355e+000  7.032e+000  0.000e+000
 4.591e+000  7.072e+000  0.000e+000
 3.826e+000  7.108e+000  0.000e+000
 3.062e+000  7.136e+000  0.000e+000
 2.297e+000  7.154e+000  0.000e+000
 1.531e+000  7.170e+000  0.000e+000
 7.661e-001  7.179e+000  0.000e+000
 7.659e-004  7.184e+000  0.000e+000
 2.605e+001  0.000e+000  0.000e+000
 2.575e+001  5.212e-001  0.000e+000
 2.535e+001  1.016e+000  0.000e+000
 2.486e+001  1.471e+000  0.000e+000
 2.432e+001  1.885e+000  0.000e+000
 2.373e+001  2.255e+000  0.000e+000
 2.312e+001  2.592e+000  0.000e+000
 2.249e+001  2.905e+000  0.000e+000
 2.184e+001  3.192e+000  0.000e+000
 2.118e+001  3.453e+000  0.000e+000
 2.052e+001  3.697e+000  0.000e+000
 1.984e+001  3.925e+000  0.000e+000
 1.916e+001  4.138e+000  0.000e+000
 1.847e+001  4.335e+000  0.000e+000
 1.778e+001  4.519e+000  0.000e+000
 1.709e+001  4.693e+000  0.000e+000
 1.639e+001  4.857e+000  0.000e+000
 1.569e+001  5.006e+000  0.000e+000
 1.499e+001  5.149e+000  0.000e+000
 1.429e+001  5.285e+000  0.000e+000
 1.358e+001  5.408e+000  0.000e+000
 1.287e+001  5.523e+000  0.000e+000
 1.216e+001  5.631e+000  0.000e+000
 1.145e+001  5.732e+000  0.000e+000
 1.074e+001  5.825e+000  0.000e+000
 1.003e+001  5.911e+000  0.000e+000
 9.318e+000  5.992e+000  0.000e+000
 8.604e+000  6.067e+000  0.000e+000
 7.889e+000  6.132e+000  0.000e+000
 7.173e+000  6.190e+000  0.000e+000
 6.458e+000  6.246e+000  0.000e+000
 5.741e+000  6.295e+000  0.000e+000
 5.025e+000  6.336e+000  0.000e+000
 4.308e+000  6.371e+000  0.000e+000
 3.590e+000  6.404e+000  0.000e+000
 2.873e+000  6.430e+000  0.000e+000
 2.155e+000  6.446e+000  0.000e+000
 1.437e+000  6.460e+000  0.000e+000
 7.188e-001  6.469e+000  0.000e+000
 7.185e-004  6.474e+000  0.000e+000
 2.447e+001  0.000e+000  0.000e+000
 2.416e+001  4.587e-001  0.000e+000
 2.376e+001  8.944e-001  0.000e+000
 2.329e+001  1.297e+000  0.000e+000
 2.277e+001  1.663e+000  0.000e+000
 2.222e+001  1.991e+000  0.000e+000
 2.164e+001  2.290e+000  0.000e+000
 2.104e+001  2.567e+000  0.000e+000
 2.043e+001  2.823e+000  0.000e+000
 1.981e+001  3.056e+000  0.000e+000
 1.918e+001  3.273e+000  0.000e+000
 1.855e+001  3.477e+000  0.000e+000
 1.791e+001  3.668e+000  0.000e+000
 1.727e+001  3.844e+000  0.000e+000
 1.662e+001  4.008e+000  0.000e+000
 1.597e+001  4.165e+000  0.000e+000
 1.532e+001  4.312e+000  0.000e+000
 1.467e+001  4.445e+000  0.000e+000
 1.401e+001  4.573e+000  0.000e+000
 1.335e+001  4.695e+000  0.000e+000
 1.269e+001  4.806e+000  0.000e+000
 1.203e+001  4.909e+000  0.000e+000
 1.137e+001  5.006e+000  0.000e+000
 1.070e+001  5.096e+000  0.000e+000
 1.004e+001  5.180e+000  0.000e+000
 9.372e+000  5.257e+000  0.000e+000
 8.706e+000  5.330e+000  0.000e+000
 8.038e+000  5.398e+000  0.000e+000
 7.370e+000  5.456e+000  0.000e+000
 6.702e+000  5.508e+000  0.000e+000
 6.033e+000  5.558e+000  0.000e+000
 5.364e+000  5.603e+000  0.000e+000
 4.694e+000  5.639e+000  0.000e+000
 4.024e+000  5.671e+000  0.000e+000
 3.354e+000  5.700e+000  0.000e+000
 2.684e+000  5.724e+000  0.000e+000
 2.013e+000  5.738e+000  0.000e+000
 1.342e+000  5.751e+000  0.000e+000
 6.715e-001  5.759e+000  0.000e+000
 6.712e-004  5.763e+000  0.000e+000
 2.289e+001  0.000e+000  0.000e+000
 2.257e+001  3.962e-001  0.000e+000
 2.217e+001  7.732e-001  0.000e+000
 2.172e+001  1.122e+000  0.000e+000
 2.122e+001  1.442e+000  0.000e+000
 2.070e+001  1.726e+000  0.000e+000
 2.015e+001  1.987e+000  0.000e+000
 1.959e+001  2.230e+000  0.000e+000
 1.902e+001  2.455e+000  0.000e+000
 1.844e+001  2.659e+000  0.000e+000
 1.785e+001  2.850e+000  0.000e+000
 1.726e+001  3.029e+000  0.000e+000
 1.667e+001  3.199e+000  0.000e+000
 1.607e+001  3.353e+000  0.000e+000
 1.546e+001  3.498e+000  0.000e+000
 1.486e+001  3.636e+000  0.000e+000
 1.425e+001  3.767e+000  0.000e+000
 1.364e+001  3.884e+000  0.000e+000
 1.303e+001  3.997e+000  0.000e+000
 1.242e+001  4.105e+000  0.000e+000
 1.180e+001  4.204e+000  0.000e+000
 1.119e+001  4.294e+000  0.000e+000
 1.057e+001  4.381e+000  0.000e+000
 9.951e+000  4.461e+000  0.000e+000
 9.332e+000  4.535e+000  0.000e+000
 8.713e+000  4.604e+000  0.000e+000
 8.094e+000  4.668e+000  0.000e+000
 7.473e+000  4.728e+000  0.000e+000
 6.852e+000  4.780e+000  0.000e+000
 6.230e+000  4.826e+000  0.000e+000
 5.609e+000  4.870e+000  0.000e+000
 4.986e+000  4.910e+000  0.000e+000
 4.364e+000  4.942e+000  0.000e+000
 3.741e+000  4.970e+000  0.000e+000
 3.118e+000  4.996e+000  0.000e+000
 2.495e+000  5.018e+000  0.000e+000
 1.871e+000  5.030e+000  0.000e+000
 1.248e+000  5.041e+000  0.000e+000
 6.242e-001  5.048e+000  0.000e+000
 6.239e-004  5.053e+000  0.000e+000
 2.132e+001  0.000e+000  0.000e+000
 2.098e+001  3.336e-001  0.000e+000
 2.059e+001  6.519e-001  0.000e+000
 2.015e+001  9.479e-001  0.000e+000
 1.968e+001  1.220e+000  0.000e+000
 1.918e+001  1.462e+000  0.000e+000
 1.867e+001  1.685e+000  0.000e+000
 1.814e+001  1.893e+000  0.000e+000
 1.761e+001  2.087e+000  0.000e+000
 1.707e+001  2.262e+000  0.000e+000
 1.652e+001  2.427e+000  0.000e+000
 1.597e+001  2.582e+000  0.000e+000
 1.542e+001  2.729e+000  0.000e+000
 1.486e+001  2.862e+000  0.000e+000
 1.430e+001  2.987e+000  0.000e+000
 1.374e+001  3.108e+000  0.000e+000
 1.318e+001  3.221e+000  0.000e+000
 1.261e+001  3.323e+000  0.000e+000
 1.205e+001  3.421e+000  0.000e+000
 1.148e+001  3.516e+000  0.000e+000
 1.091e+001  3.602e+000  0.000e+000
 1.034e+001  3.680e+000  0.000e+000
 9.771e+000  3.755e+000  0.000e+000
 9.199e+000  3.826e+000  0.000e+000
 8.627e+000  3.890e+000  0.000e+000
 8.055e+000  3.950e+000  0.000e+000
 7.482e+000  4.006e+000  0.000e+000
 6.908e+000  4.059e+000  0.000e+000
 6.334e+000  4.104e+000  0.000e+000
 5.759e+000  4.144e+000  0.000e+000
 5.184e+000  4.183e+000  0.000e+000
 4.609e+000  4.218e+000  0.000e+000
 4.033e+000  4.246e+000  0.000e+000
 3.458e+000  4.270e+000  0.000e+000
 2.882e+000  4.293e+000  0.000e+000
 2.306e+000  4.311e+000  0.000e+000
 1.730e+000  4.323e+000  0.000e+000
 1.153e+000  4.332e+000  0.000e+000
 5.769e-001  4.338e+000  0.000e+000
 5.766e-004  4.342e+000  0.000e+000
 1.974e+001  0.000e+000  0.000e+000
 1.939e+001  2.711e-001  0.000e+000
 1.900e+001  5.307e-001  0.000e+000
 1.858e+001  7.735e-001  0.000e+000
 1.813e+001  9.985e-001  0.000e+000
 1.766e+001  1.198e+000  0.000e+000
 1.718e+001  1.382e+000  0.000e+000
 1.669e+001  1.556e+000  0.000e+000
 1.620e+001  1.719e+000  0.000e+000
 1.570e+001  1.865e+000  0.000e+000
 1.519e+001  2.003e+000  0.000e+000
 1.468e+001  2.134e+000  0.000e+000
 1.417e+001  2.259e+000  0.000e+000
 1.366e+001  2.370e+000  0.000e+000
 1.314e+001  2.477e+000  0.000e+000
 1.263e+001  2.579e+000  0.000e+000
 1.211e+001  2.676e+000  0.000e+000
 1.159e+001  2.762e+000  0.000e+000
 1.107e+001  2.845e+000  0.000e+000
 1.054e+001  2.926e+000  0.000e+000
 1.002e+001  2.999e+000  0.000e+000
 9.497e+000  3.066e+000  0.000e+000
 8.973e+000  3.130e+000  0.000e+000
 8.448e+000  3.191e+000  0.000e+000
 7.922e+000  3.246e+000  0.000e+000
 7.396e+000  3.296e+000  0.000e+000
 6.870e+000  3.344e+000  0.000e+000
 6.343e+000  3.389e+000  0.000e+000
 5.815e+000  3.428e+000  0.000e+000
 5.287e+000  3.462e+000  0.000e+000
 4.760e+000  3.495e+000  0.000e+000
 4.231e+000  3.525e+000  0.000e+000
 3.703e+000  3.549e+000  0.000e+000
 3.174e+000  3.569e+000  0.000e+000
 2.646e+000  3.589e+000  0.000e+000
 2.117e+000  3.605e+000  0.000e+000
 1.588e+000  3.615e+000  0.000e+000
 1.059e+000  3.622e+000  0.000e+000
 5.296e-001  3.628e+000  0.000e+000
 5.293e-004  3.632e+000  0.000e+000
 1.816e+001  0.000e+000  0.000e+000
 1.780e+001  2.086e-001  0.000e+000
 1.742e+001  4.095e-001  0.000e+000
 1.701e+001  5.992e-001  0.000e+000
 1.658e+001  7.769e-001  0.000e+000
 1.614e+001  9.331e-001  0.000e+000
 1.570e+001  1.080e+000  0.000e+000
 1.524e+001  1.219e+000  0.000e+000
 1.479e+001  1.351e+000  0.000e+000
 1.432e+001  1.468e+000  0.000e+000
 1.386e+001  1.580e+000  0.000e+000
 1.339e+001  1.687e+000  0.000e+000
 1.293e+001  1.789e+000  0.000e+000
 1.245e+001  1.879e+000  0.000e+000
 1.198e+001  1.966e+000  0.000e+000
 1.151e+001  2.051e+000  0.000e+000
 1.104e+001  2.130e+000  0.000e+000
 1.056e+001  2.201e+000  0.000e+000
 1.009e+001  2.270e+000  0.000e+000
 9.609e+000  2.336e+000  0.000e+000
 9.132e+000  2.397e+000  0.000e+000
 8.654e+000  2.452e+000  0.000e+000
 8.175e+000  2.505e+000  0.000e+000
 7.696e+000  2.555e+000  0.000e+000
 7.217e+000  2.601e+000  0.000e+000
 6.737e+000  2.642e+000  0.000e+000
 6.258e+000  2.682e+000  0.000e+000
 5.777e+000  2.720e+000  0.000e+000
 5.297e+000  2.752e+000  0.000e+000
 4.816e+000  2.780e+000  0.000e+000
 4.335e+000  2.807e+000  0.000e+000
 3.854e+000  2.833e+000  0.000e+000
 3.372e+000  2.852e+000  0.000e+000
 2.891e+000  2.869e+000  0.000e+000
 2.409e+000  2.885e+000  0.000e+000
 1.928e+000  2.899e+000  0.000e+000
 1.446e+000  2.907e+000  0.000e+000
 9.642e-001  2.913e+000  0.000e+000
 4.823e-001  2.917e+000  0.000e+000
 4.820e-004  2.921e+000  0.000e+000
 1.658e+001  0.000e+000  0.000e+000
 1.621e+001  1.461e-001  0.000e+000
 1.583e+001  2.883e-001  0.000e+000
 1.544e+001  4.249e-001  0.000e+000
 1.503e+001  5.552e-001  0.000e+000
 1.462e+001  6.687e-001  0.000e+000
 1.421e+001  7.773e-001  0.000e+000
 1.379e+001  8.824e-001  0.000e+000
 1.337e+001  9.829e-001  0.000e+000
 1.295e+001  1.071e+000  0.000e+000
 1.253e+001  1.156e+000  0.000e+000
 1.210e+001  1.239e+000  0.000e+000
 1.168e+001  1.319e+000  0.000e+000
 1.125e+001  1.388e+000  0.000e+000
 1.082e+001  1.456e+000  0.000e+000
 1.039e+001  1.522e+000  0.000e+000
 9.965e+000  1.585e+000  0.000e+000
 9.535e+000  1.640e+000  0.000e+000
 9.104e+000  1.694e+000  0.000e+000
 8.673e+000  1.747e+000  0.000e+000
 8.242e+000  1.795e+000  0.000e+000
 7.810e+000  1.838e+000  0.000e+000
 7.377e+000  1.879e+000  0.000e+000
 6.945e+000  1.920e+000  0.000e+000
 6.512e+000  1.956e+000  0.000e+000
 6.079e+000  1.989e+000  0.000e+000
 5.646e+000  2.020e+000  0.000e+000
 5.212e+000  2.051e+000  0.000e+000
 4.778e+000  2.076e+000  0.000e+000
 4.344e+000  2.098e+000  0.000e+000
 3.910e+000  2.120e+000  0.000e+000
 3.476e+000  2.140e+000  0.000e+000
 3.042e+000  2.156e+000  0.000e+000
 2.608e+000  2.169e+000  0.000e+000
 2.173e+000  2.181e+000  0.000e+000
 1.739e+000  2.193e+000  0.000e+000
 1.304e+000  2.199e+000  0.000e+000
 8.696e-001  2.203e+000  0.000e+000
 4.350e-001  2.207e+000  0.000e+000
 4.347e-004  2.211e+000  0.000e+000
 1.500e+001  0.000e+000  0.000e+000
 1.462e+001  8.352e-002  0.000e+000
 1.424e+001  1.670e-001  0.000e+000
 1.387e+001  2.506e-001  0.000e+000
 1.349e+001  3.336e-001  0.000e+000
 1.311e+001  4.042e-001  0.000e+000
 1.273e+001  4.748e-001  0.000e+000
 1.234e+001  5.453e-001  0.000e+000
 1.196e+001  6.148e-001  0.000e+000
 1.158e+001  6.737e-001  0.000e+000
 1.120e+001  7.327e-001  0.000e+000
 1.081e+001  7.916e-001  0.000e+000
 1.043e+001  8.486e-001  0.000e+000
 1.005e+001  8.971e-001  0.000e+000
 9.663e+000  9.455e-001  0.000e+000
 9.278e+000  9.939e-001  0.000e+000
 8.894e+000  1.040e+000  0.000e+000
 8.508e+000  1.079e+000  0.000e+000
 8.123e+000  1.118e+000  0.000e+000
 7.738e+000  1.157e+000  0.000e+000
 7.352e+000  1.193e+000  0.000e+000
 6.966e+000  1.223e+000  0.000e+000
 6.579e+000  1.254e+000  0.000e+000
 6.193e+000  1.285e+000  0.000e+000
 5.807e+000  1.312e+000  0.000e+000
 5.420e+000  1.335e+000  0.000e+000
 5.034e+000  1.358e+000  0.000e+000
 4.647e+000  1.381e+000  0.000e+000
 4.260e+000  1.400e+000  0.000e+000
 3.873e+000  1.416e+000  0.000e+000
 3.486e+000  1.432e+000  0.000e+000
 3.099e+000  1.448e+000  0.000e+000
 2.712e+000  1.459e+000  0.000e+000
 2.324e+000  1.468e+000  0.000e+000
 1.937e+000  1.478e+000  0.000e+000
 1.550e+000  1.487e+000  0.000e+000
 1.162e+000  1.491e+000  0.000e+000
 7.751e-001  1.494e+000  0.000e+000
 3.878e-001  1.497e+000  0.000e+000
 3.874e-004  1.500e+000  0.000e+000
       1        2       42       41
       2        3       43       42
       3        4       44       43
       4        5       45       44
       5        6       46       45
       6        7       47       46
       7        8       48       47
       8        9       49       48
       9       10       50       49
      10       11       51       50
      11       12       52       51
      12       13       53       52
      13       14       54       53
      14       15       55       54
      15       16       56       55
      16       17       57       56
      17       18       58       57
      18       19       59       58
      19       20       60       59
      20       21       61       60
      21       22       62       61
      22       23       63       62
      23       24       64       63
      24       25       65       64
      25       26       66       65
      26       27       67       66
      27       28       68       67
      28       29       69       68
      29       30       70       69
      30       31       71       70