TITLE = "NODEELEMENT"
VARIABLES = "X", "Y", "Z"
ZONE N=     600, E=     531, F=FEPOINT, ET=QUADRILATERAL
 1.125e+001  0.000e+000  0.000e+000
 1.106e+001  0.000e+000  0.000e+000
 1.087e+001  0.000e+000  0.000e+000
 1.068e+001  0.000e+000  0.000e+000
 1.049e+001  0.000e+000  0.000e+000
 1.030e+001  0.000e+000  0.000e+000
 1.011e+001  0.000e+000  0.000e+000
 9.915e+000  0.000e+000  0.000e+000
 9.725e+000  0.000e+000  0.000e+000
 9.534e+000  0.000e+000  0.000e+000
 9.343e+000  0.000e+000  0.000e+000
 9.153e+000  0.000e+000  0.000e+000
 8.962e+000  0.000e+000  0.000e+000
 8.771e+000  0.000e+000  0.000e+000
 8.581e+000  0.000e+000  0.000e+000
 8.390e+000  0.000e+000  0.000e+000
 8.199e+000  0.000e+000  0.000e+000
 8.009e+000  0.000e+000  0.000e+000
 7.818e+000  0.000e+000  0.000e+000
 7.627e+000  0.000e+000  0.000e+000
 7.437e+000  0.000e+000  0.000e+000
 7.246e+000  0.000e+000  0.000e+000
 7.055e+000  0.000e+000  0.000e+000
 6.864e+000  0.000e+000  0.000e+000
 6.674e+000  0.000e+000  0.000e+000
 6.483e+000  0.000e+000  0.000e+000
 6.292e+000  0.000e+000  0.000e+000
 6.102e+000  0.000e+000  0.000e+000
 5.911e+000  0.000e+000  0.000e+000
 5.720e+000  0.000e+000  0.000e+000
 5.530e+000  0.000e+000  0.000e+000
 5.339e+000  0.000e+000  0.000e+000
 5.148e+000  0.000e+000  0.000e+000
 4.958e+000  0.000e+000  0.000e+000
 4.767e+000  0.000e+000  0.000e+000
 4.576e+000  0.000e+000  0.000e+000
 4.386e+000  0.000e+000  0.000e+000
 4.195e+000  0.000e+000  0.000e+000
 4.004e+000  0.000e+000  0.000e+000
 3.814e+000  0.000e+000  0.000e+000
 3.623e+000  0.000e+000  0.000e+000
 3.432e+000  0.000e+000  0.000e+000
 3.242e+000  0.000e+000  0.000e+000
 3.051e+000  0.000e+000  0.000e+000
 2.860e+000  0.000e+000  0.000e+000
 2.670e+000  0.000e+000  0.000e+000
 2.479e+000  0.000e+000  0.000e+000
 2.288e+000  0.000e+000  0.000e+000
 2.098e+000  0.000e+000  0.000e+000
 1.907e+000  0.000e+000  0.000e+000
 1.716e+000  0.000e+000  0.000e+000
 1.526e+000  0.000e+000  0.000e+000
 1.335e+000  0.000e+000  0.000e+000
 1.144e+000  0.000e+000  0.000e+000
 9.536e-001  0.000e+000  0.000e+000
 7.629e-001  0.000e+000  0.000e+000
 5.722e-001  0.000e+000  0.000e+000
 3.815e-001  0.000e+000  0.000e+000
 1.909e-001  0.000e+000  0.000e+000
 1.907e-004  0.000e+000  0.000e+000
 1.167e+001  0.000e+000  0.000e+000
 1.147e+001  6.134e-003  0.000e+000
 1.127e+001  1.227e-002  0.000e+000
 1.107e+001  1.840e-002  0.000e+000
 1.088e+001  2.454e-002  0.000e+000
 1.068e+001  3.067e-002  0.000e+000
 1.048e+001  3.681e-002  0.000e+000
 1.029e+001  4.199e-002  0.000e+000
 1.009e+001  4.717e-002  0.000e+000
 9.891e+000  5.235e-002  0.000e+000
 9.693e+000  5.754e-002  0.000e+000
 9.496e+000  6.272e-002  0.000e+000
 9.298e+000  6.787e-002  0.000e+000
 9.101e+000  7.219e-002  0.000e+000
 8.903e+000  7.652e-002  0.000e+000
 8.705e+000  8.085e-002  0.000e+000
 8.508e+000  8.518e-002  0.000e+000
 8.310e+000  8.951e-002  0.000e+000
 8.113e+000  9.375e-002  0.000e+000
 7.915e+000  9.730e-002  0.000e+000
 7.717e+000  1.009e-001  0.000e+000
 7.519e+000  1.044e-001  0.000e+000
 7.322e+000  1.080e-001  0.000e+000
 7.124e+000  1.115e-001  0.000e+000
 6.926e+000  1.149e-001  0.000e+000
 6.728e+000  1.178e-001  0.000e+000
 6.531e+000  1.207e-001  0.000e+000
 6.333e+000  1.235e-001  0.000e+000
 6.135e+000  1.264e-001  0.000e+000
 5.937e+000  1.293e-001  0.000e+000
 5.739e+000  1.320e-001  0.000e+000
 5.542e+000  1.342e-001  0.000e+000
 5.344e+000  1.365e-001  0.000e+000
 5.146e+000  1.387e-001  0.000e+000
 4.948e+000  1.410e-001  0.000e+000
 4.750e+000  1.432e-001  0.000e+000
 4.552e+000  1.452e-001  0.000e+000
 4.354e+000  1.469e-001  0.000e+000
 4.157e+000  1.486e-001  0.000e+000
 3.959e+000  1.503e-001  0.000e+000
 3.761e+000  1.520e-001  0.000e+000
 3.563e+000  1.537e-001  0.000e+000
 3.365e+000  1.551e-001  0.000e+000
 3.167e+000  1.563e-001  0.000e+000
 2.969e+000  1.575e-001  0.000e+000
 2.771e+000  1.587e-001  0.000e+000
 2.573e+000  1.598e-001  0.000e+000
 2.375e+000  1.610e-001  0.000e+000
 2.177e+000  1.618e-001  0.000e+000
 1.980e+000  1.625e-001  0.000e+000
 1.782e+000  1.632e-001  0.000e+000
 1.584e+000  1.639e-001  0.000e+000
 1.386e+000  1.646e-001  0.000e+000
 1.188e+000  1.652e-001  0.000e+000
 9.899e-001  1.655e-001  0.000e+000
 7.920e-001  1.658e-001  0.000e+000
 5.940e-001  1.660e-001  0.000e+000
 3.961e-001  1.662e-001  0.000e+000
 1.981e-001  1.664e-001  0.000e+000
 1.979e-004  1.667e-001  0.000e+000
 1.208e+001  0.000e+000  0.000e+000
 1.188e+001  1.227e-002  0.000e+000
 1.168e+001  2.454e-002  0.000e+000
 1.147e+001  3.681e-002  0.000e+000
 1.127e+001  4.907e-002  0.000e+000
 1.106e+001  6.134e-002  0.000e+000
 1.086e+001  7.361e-002  0.000e+000
 1.066e+001  8.398e-002  0.000e+000
 1.045e+001  9.434e-002  0.000e+000
 1.025e+001  1.047e-001  0.000e+000
 1.004e+001  1.151e-001  0.000e+000
 9.839e+000  1.254e-001  0.000e+000
 9.635e+000  1.357e-001  0.000e+000
 9.430e+000  1.444e-001  0.000e+000
 9.226e+000  1.530e-001  0.000e+000
 9.021e+000  1.617e-001  0.000e+000
 8.816e+000  1.704e-001  0.000e+000
 8.612e+000  1.790e-001  0.000e+000
 8.407e+000  1.875e-001  0.000e+000
 8.203e+000  1.946e-001  0.000e+000
 7.998e+000  2.017e-001  0.000e+000
 7.793e+000  2.088e-001  0.000e+000
 7.588e+000  2.159e-001  0.000e+000
 7.384e+000  2.231e-001  0.000e+000
 7.179e+000  2.299e-001  0.000e+000
 6.974e+000  2.356e-001  0.000e+000
 6.769e+000  2.414e-001  0.000e+000
 6.564e+000  2.471e-001  0.000e+000
 6.359e+000  2.528e-001  0.000e+000
 6.154e+000  2.586e-001  0.000e+000
 5.949e+000  2.639e-001  0.000e+000
 5.744e+000  2.684e-001  0.000e+000
 5.539e+000  2.729e-001  0.000e+000
 5.334e+000  2.774e-001  0.000e+000
 5.129e+000  2.819e-001  0.000e+000
 4.924e+000  2.864e-001  0.000e+000
 4.719e+000  2.904e-001  0.000e+000
 4.514e+000  2.938e-001  0.000e+000
 4.309e+000  2.972e-001  0.000e+000
 4.104e+000  3.006e-001  0.000e+000
 3.899e+000  3.040e-001  0.000e+000
 3.693e+000  3.075e-001  0.000e+000
 3.488e+000  3.103e-001  0.000e+000
 3.283e+000  3.126e-001  0.000e+000
 3.078e+000  3.150e-001  0.000e+000
 2.873e+000  3.173e-001  0.000e+000
 2.668e+000  3.197e-001  0.000e+000
 2.463e+000  3.220e-001  0.000e+000
 2.257e+000  3.236e-001  0.000e+000
 2.052e+000  3.250e-001  0.000e+000
 1.847e+000  3.264e-001  0.000e+000
 1.642e+000  3.277e-001  0.000e+000
 1.437e+000  3.291e-001  0.000e+000
 1.231e+000  3.305e-001  0.000e+000
 1.026e+000  3.311e-001  0.000e+000
 8.210e-001  3.315e-001  0.000e+000
 6.158e-001  3.320e-001  0.000e+000
 4.106e-001  3.324e-001  0.000e+000
 2.054e-001  3.329e-001  0.000e+000
 2.052e-004  3.333e-001  0.000e+000
 1.250e+001  0.000e+000  0.000e+000
 1.229e+001  1.840e-002  0.000e+000
 1.208e+001  3.681e-002  0.000e+000
 1.187e+001  5.521e-002  0.000e+000
 1.166e+001  7.361e-002  0.000e+000
 1.145e+001  9.202e-002  0.000e+000
 1.124e+001  1.104e-001  0.000e+000
 1.103e+001  1.260e-001  0.000e+000
 1.082e+001  1.415e-001  0.000e+000
 1.060e+001  1.571e-001  0.000e+000
 1.039e+001  1.726e-001  0.000e+000
 1.018e+001  1.882e-001  0.000e+000
 9.971e+000  2.036e-001  0.000e+000
 9.759e+000  2.166e-001  0.000e+000
 9.548e+000  2.296e-001  0.000e+000
 9.337e+000  2.426e-001  0.000e+000
 9.125e+000  2.555e-001  0.000e+000
 8.914e+000  2.685e-001  0.000e+000
 8.702e+000  2.812e-001  0.000e+000
 8.490e+000  2.919e-001  0.000e+000
 8.278e+000  3.026e-001  0.000e+000
 8.067e+000  3.133e-001  0.000e+000
 7.855e+000  3.239e-001  0.000e+000
 7.643e+000  3.346e-001  0.000e+000
 7.431e+000  3.448e-001  0.000e+000
 7.219e+000  3.534e-001  0.000e+000
 7.007e+000  3.620e-001  0.000e+000
 6.795e+000  3.706e-001  0.000e+000
 6.583e+000  3.792e-001  0.000e+000
 6.371e+000  3.879e-001  0.000e+000
 6.159e+000  3.959e-001  0.000e+000
 5.947e+000  4.026e-001  0.000e+000
 5.734e+000  4.094e-001  0.000e+000
 5.522e+000  4.161e-001  0.000e+000
 5.310e+000  4.229e-001  0.000e+000
 5.098e+000  4.296e-001  0.000e+000
 4.886e+000  4.356e-001  0.000e+000
 4.673e+000  4.407e-001  0.000e+000
 4.461e+000  4.458e-001  0.000e+000
 4.249e+000  4.510e-001  0.000e+000
 4.036e+000  4.561e-001  0.000e+000
 3.824e+000  4.612e-001  0.000e+000
 3.612e+000  4.654e-001  0.000e+000
 3.399e+000  4.689e-001  0.000e+000
 3.187e+000  4.724e-001  0.000e+000
 2.974e+000  4.760e-001  0.000e+000
 2.762e+000  4.795e-001  0.000e+000
 2.550e+000  4.830e-001  0.000e+000
 2.337e+000  4.855e-001  0.000e+000
 2.125e+000  4.875e-001  0.000e+000
 1.912e+000  4.896e-001  0.000e+000
 1.700e+000  4.916e-001  0.000e+000
 1.487e+000  4.937e-001  0.000e+000
 1.275e+000  4.957e-001  0.000e+000
 1.063e+000  4.966e-001  0.000e+000
 8.501e-001  4.973e-001  0.000e+000
 6.376e-001  4.980e-001  0.000e+000
 4.251e-001  4.986e-001  0.000e+000
 2.127e-001  4.993e-001  0.000e+000
 2.125e-004  5.000e-001  0.000e+000
 1.292e+001  0.000e+000  0.000e+000
 1.270e+001  2.454e-002  0.000e+000
 1.248e+001  4.907e-002  0.000e+000
 1.227e+001  7.361e-002  0.000e+000
 1.205e+001  9.815e-002  0.000e+000
 1.183e+001  1.227e-001  0.000e+000
 1.161e+001  1.472e-001  0.000e+000
 1.140e+001  1.680e-001  0.000e+000
 1.118e+001  1.887e-001  0.000e+000
 1.096e+001  2.094e-001  0.000e+000
 1.074e+001  2.301e-001  0.000e+000
 1.053e+001  2.509e-001  0.000e+000
 1.031e+001  2.715e-001  0.000e+000
 1.009e+001  2.888e-001  0.000e+000
 9.870e+000  3.061e-001  0.000e+000
 9.652e+000  3.234e-001  0.000e+000
 9.434e+000  3.407e-001  0.000e+000
 9.215e+000  3.580e-001  0.000e+000
 8.997e+000  3.750e-001  0.000e+000
 8.778e+000  3.892e-001  0.000e+000
 8.559e+000  4.034e-001  0.000e+000
 8.340e+000  4.177e-001  0.000e+000
 8.121e+000  4.319e-001  0.000e+000
 7.903e+000  4.461e-001  0.000e+000
 7.684e+000  4.598e-001  0.000e+000
 7.464e+000  4.712e-001  0.000e+000
 7.245e+000  4.827e-001  0.000e+000
 7.026e+000  4.942e-001  0.000e+000
 6.807e+000  5.057e-001  0.000e+000
 6.588e+000  5.171e-001  0.000e+000
 6.369e+000  5.278e-001  0.000e+000
 6.149e+000  5.368e-001  0.000e+000
 5.930e+000  5.458e-001  0.000e+000
 5.710e+000  5.548e-001  0.000e+000
 5.491e+000  5.638e-001  0.000e+000
 5.272e+000  5.728e-001  0.000e+000
 5.052e+000  5.808e-001  0.000e+000
 4.833e+000  5.876e-001  0.000e+000
 4.613e+000  5.945e-001  0.000e+000
 4.394e+000  6.013e-001  0.000e+000
 4.174e+000  6.081e-001  0.000e+000
 3.955e+000  6.149e-001  0.000e+000
 3.735e+000  6.205e-001  0.000e+000
 3.515e+000  6.252e-001  0.000e+000
 3.296e+000  6.299e-001  0.000e+000
 3.076e+000  6.346e-001  0.000e+000
 2.856e+000  6.393e-001  0.000e+000
 2.637e+000  6.440e-001  0.000e+000
 2.417e+000  6.473e-001  0.000e+000
 2.197e+000  6.500e-001  0.000e+000
 1.978e+000  6.528e-001  0.000e+000
 1.758e+000  6.555e-001  0.000e+000
 1.538e+000  6.582e-001  0.000e+000
 1.319e+000  6.609e-001  0.000e+000
 1.099e+000  6.621e-001  0.000e+000
 8.792e-001  6.630e-001  0.000e+000
 6.594e-001  6.639e-001  0.000e+000
 4.397e-001  6.648e-001  0.000e+000
 2.200e-001  6.658e-001  0.000e+000
 2.197e-004  6.667e-001  0.000e+000
 1.333e+001  0.000e+000  0.000e+000
 1.311e+001  3.067e-002  0.000e+000
 1.289e+001  6.134e-002  0.000e+000
 1.266e+001  9.202e-002  0.000e+000
 1.244e+001  1.227e-001  0.000e+000
 1.222e+001  1.534e-001  0.000e+000
 1.199e+001  1.840e-001  0.000e+000
 1.177e+001  2.099e-001  0.000e+000
 1.154e+001  2.359e-001  0.000e+000
 1.132e+001  2.618e-001  0.000e+000
 1.109e+001  2.877e-001  0.000e+000
 1.087e+001  3.136e-001  0.000e+000
 1.064e+001  3.393e-001  0.000e+000
 1.042e+001  3.610e-001  0.000e+000
 1.019e+001  3.826e-001  0.000e+000
 9.968e+000  4.043e-001  0.000e+000
 9.742e+000  4.259e-001  0.000e+000
 9.517e+000  4.475e-001  0.000e+000
 9.291e+000  4.687e-001  0.000e+000
 9.066e+000  4.865e-001  0.000e+000
 8.840e+000  5.043e-001  0.000e+000
 8.614e+000  5.221e-001  0.000e+000
 8.388e+000  5.399e-001  0.000e+000
 8.162e+000  5.577e-001  0.000e+000
 7.936e+000  5.747e-001  0.000e+000
 7.710e+000  5.891e-001  0.000e+000
 7.484e+000  6.034e-001  0.000e+000
 7.257e+000  6.177e-001  0.000e+000
 7.031e+000  6.321e-001  0.000e+000
 6.805e+000  6.464e-001  0.000e+000
 6.578e+000  6.598e-001  0.000e+000
 6.352e+000  6.710e-001  0.000e+000
 6.125e+000  6.823e-001  0.000e+000
 5.899e+000  6.935e-001  0.000e+000
 5.672e+000  7.048e-001  0.000e+000
 5.446e+000  7.160e-001  0.000e+000
 5.219e+000  7.260e-001  0.000e+000
 4.992e+000  7.346e-001  0.000e+000
 4.765e+000  7.431e-001  0.000e+000
 4.539e+000  7.516e-001  0.000e+000
 4.312e+000  7.601e-001  0.000e+000
 4.085e+000  7.686e-001  0.000e+000
 3.858e+000  7.756e-001  0.000e+000
 3.631e+000  7.815e-001  0.000e+000
 3.405e+000  7.874e-001  0.000e+000
 3.178e+000  7.933e-001  0.000e+000
 2.951e+000  7.991e-001  0.000e+000
 2.724e+000  8.050e-001  0.000e+000
 2.497e+000  8.091e-001  0.000e+000
 2.270e+000  8.125e-001  0.000e+000
 2.043e+000  8.159e-001  0.000e+000
 1.816e+000  8.194e-001  0.000e+000
 1.589e+000  8.228e-001  0.000e+000
 1.362e+000  8.262e-001  0.000e+000
 1.135e+000  8.276e-001  0.000e+000
 9.082e-001  8.288e-001  0.000e+000
 6.812e-001  8.299e-001  0.000e+000
 4.542e-001  8.311e-001  0.000e+000
 2.272e-001  8.322e-001  0.000e+000
 2.270e-004  8.333e-001  0.000e+000
 1.375e+001  0.000e+000  0.000e+000
 1.352e+001  3.681e-002  0.000e+000
 1.329e+001  7.361e-002  0.000e+000
 1.306e+001  1.104e-001  0.000e+000
 1.283e+001  1.472e-001  0.000e+000
 1.260e+001  1.840e-001  0.000e+000
 1.237e+001  2.208e-001  0.000e+000
 1.214e+001  2.519e-001  0.000e+000
 1.191e+001  2.830e-001  0.000e+000
 1.167e+001  3.141e-001  0.000e+000
 1.144e+001  3.452e-001  0.000e+000
 1.121e+001  3.763e-001  0.000e+000
 1.098e+001  4.072e-001  0.000e+000
 1.075e+001  4.332e-001  0.000e+000
 1.052e+001  4.591e-001  0.000e+000
 1.028e+001  4.851e-001  0.000e+000
 1.005e+001  5.111e-001  0.000e+000
 9.819e+000  5.371e-001  0.000e+000
 9.586e+000  5.625e-001  0.000e+000
 9.353e+000  5.838e-001  0.000e+000
 9.120e+000  6.052e-001  0.000e+000
 8.887e+000  6.265e-001  0.000e+000
 8.655e+000  6.478e-001  0.000e+000
 8.422e+000  6.692e-001  0.000e+000
 8.189e+000  6.897e-001  0.000e+000
 7.955e+000  7.069e-001  0.000e+000
 7.722e+000  7.241e-001  0.000e+000
 7.488e+000  7.413e-001  0.000e+000
 7.255e+000  7.585e-001  0.000e+000
 7.022e+000  7.757e-001  0.000e+000
 6.788e+000  7.917e-001  0.000e+000
 6.554e+000  8.052e-001  0.000e+000
 6.321e+000  8.187e-001  0.000e+000
 6.087e+000  8.322e-001  0.000e+000
 5.853e+000  8.457e-001  0.000e+000
 5.619e+000  8.592e-001  0.000e+000
 5.386e+000  8.712e-001  0.000e+000
 5.152e+000  8.815e-001  0.000e+000
 4.918e+000  8.917e-001  0.000e+000
 4.684e+000  9.019e-001  0.000e+000
 4.450e+000  9.121e-001  0.000e+000
 4.216e+000  9.224e-001  0.000e+000
 3.982e+000  9.308e-001  0.000e+000
 3.748e+000  9.378e-001  0.000e+000
 3.513e+000  9.449e-001  0.000e+000
 3.279e+000  9.519e-001  0.000e+000
 3.045e+000  9.590e-001  0.000e+000
 2.811e+000  9.660e-001  0.000e+000
 2.577e+000  9.709e-001  0.000e+000
 2.343e+000  9.750e-001  0.000e+000
 2.108e+000  9.791e-001  0.000e+000
 1.874e+000  9.832e-001  0.000e+000
 1.640e+000  9.873e-001  0.000e+000
 1.406e+000  9.914e-001  0.000e+000
 1.172e+000  9.932e-001  0.000e+000
 9.373e-001  9.945e-001  0.000e+000
 7.030e-001  9.959e-001  0.000e+000
 4.688e-001  9.973e-001  0.000e+000
 2.345e-001  9.986e-001  0.000e+000
 2.343e-004  1.000e+000  0.000e+000
 1.417e+001  0.000e+000  0.000e+000
 1.393e+001  4.294e-002  0.000e+000
 1.369e+001  8.588e-002  0.000e+000
 1.346e+001  1.288e-001  0.000e+000
 1.322e+001  1.718e-001  0.000e+000
 1.298e+001  2.147e-001  0.000e+000
 1.275e+001  2.576e-001  0.000e+000
 1.251e+001  2.939e-001  0.000e+000
 1.227e+001  3.302e-001  0.000e+000
 1.203e+001  3.665e-001  0.000e+000
 1.179e+001  4.028e-001  0.000e+000
 1.155e+001  4.390e-001  0.000e+000
 1.132e+001  4.751e-001  0.000e+000
 1.108e+001  5.054e-001  0.000e+000
 1.084e+001  5.357e-001  0.000e+000
 1.060e+001  5.660e-001  0.000e+000
 1.036e+001  5.963e-001  0.000e+000
 1.012e+001  6.266e-001  0.000e+000
 9.881e+000  6.562e-001  0.000e+000
 9.641e+000  6.811e-001  0.000e+000
 9.401e+000  7.060e-001  0.000e+000
 9.161e+000  7.309e-001  0.000e+000
 8.921e+000  7.558e-001  0.000e+000
 8.681e+000  7.807e-001  0.000e+000
 8.441e+000  8.046e-001  0.000e+000
 8.200e+000  8.247e-001  0.000e+000
 7.960e+000  8.448e-001  0.000e+000
 7.719e+000  8.648e-001  0.000e+000
 7.479e+000  8.849e-001  0.000e+000
 7.238e+000  9.050e-001  0.000e+000
 6.998e+000  9.237e-001  0.000e+000
 6.757e+000  9.394e-001  0.000e+000
 6.516e+000  9.552e-001  0.000e+000
 6.275e+000  9.709e-001  0.000e+000
 6.034e+000  9.867e-001  0.000e+000
 5.793e+000  1.002e+000  0.000e+000
 5.552e+000  1.016e+000  0.000e+000
 5.311e+000  1.028e+000  0.000e+000
 5.070e+000  1.040e+000  0.000e+000
 4.829e+000  1.052e+000  0.000e+000
 4.587e+000  1.064e+000  0.000e+000
 4.346e+000  1.076e+000  0.000e+000
 4.105e+000  1.086e+000  0.000e+000
 3.864e+000  1.094e+000  0.000e+000
 3.622e+000  1.102e+000  0.000e+000
 3.381e+000  1.111e+000  0.000e+000
 3.140e+000  1.119e+000  0.000e+000
 2.898e+000  1.127e+000  0.000e+000
 2.657e+000  1.133e+000  0.000e+000
 2.415e+000  1.138e+000  0.000e+000
 2.174e+000  1.142e+000  0.000e+000
 1.932e+000  1.147e+000  0.000e+000
 1.691e+000  1.152e+000  0.000e+000
 1.449e+000  1.157e+000  0.000e+000
 1.208e+000  1.159e+000  0.000e+000
 9.663e-001  1.160e+000  0.000e+000
 7.248e-001  1.162e+000  0.000e+000
 4.833e-001  1.163e+000  0.000e+000
 2.418e-001  1.165e+000  0.000e+000
 2.415e-004  1.167e+000  0.000e+000
 1.458e+001  0.000e+000  0.000e+000
 1.434e+001  4.907e-002  0.000e+000
 1.410e+001  9.815e-002  0.000e+000
 1.385e+001  1.472e-001  0.000e+000
 1.361e+001  1.963e-001  0.000e+000
 1.337e+001  2.454e-001  0.000e+000
 1.312e+001  2.944e-001  0.000e+000
 1.288e+001  3.359e-001  0.000e+000
 1.263e+001  3.774e-001  0.000e+000
 1.239e+001  4.188e-001  0.000e+000
 1.214e+001  4.603e-001  0.000e+000
 1.190e+001  5.018e-001  0.000e+000
 1.165e+001  5.429e-001  0.000e+000
 1.141e+001  5.776e-001  0.000e+000
 1.116e+001  6.122e-001  0.000e+000
 1.091e+001  6.468e-001  0.000e+000
 1.067e+001  6.814e-001  0.000e+000
 1.042e+001  7.161e-001  0.000e+000
 1.018e+001  7.500e-001  0.000e+000
 9.929e+000  7.784e-001  0.000e+000
 9.682e+000  8.069e-001  0.000e+000
 9.435e+000  8.353e-001  0.000e+000
 9.188e+000  8.638e-001  0.000e+000
 8.941e+000  8.923e-001  0.000e+000
 8.693e+000  9.195e-001  0.000e+000
 8.446e+000  9.425e-001  0.000e+000
 8.198e+000  9.654e-001  0.000e+000
 7.951e+000  9.884e-001  0.000e+000
 7.703e+000  1.011e+000  0.000e+000
 7.455e+000  1.034e+000  0.000e+000
 7.207e+000  1.056e+000  0.000e+000
 6.959e+000  1.074e+000  0.000e+000
 6.711e+000  1.092e+000  0.000e+000
 6.463e+000  1.110e+000  0.000e+000
 6.215e+000  1.128e+000  0.000e+000
 5.967e+000  1.146e+000  0.000e+000
 5.719e+000  1.162e+000  0.000e+000
 5.470e+000  1.175e+000  0.000e+000
 5.222e+000  1.189e+000  0.000e+000
 4.974e+000  1.203e+000  0.000e+000
 4.725e+000  1.216e+000  0.000e+000
 4.477e+000  1.230e+000  0.000e+000
 4.228e+000  1.241e+000  0.000e+000
 3.980e+000  1.250e+000  0.000e+000
 3.731e+000  1.260e+000  0.000e+000
 3.483e+000  1.269e+000  0.000e+000
 3.234e+000  1.279e+000  0.000e+000
 2.985e+000  1.288e+000  0.000e+000
 2.737e+000  1.295e+000  0.000e+000
 2.488e+000  1.300e+000  0.000e+000
 2.239e+000  1.306e+000  0.000e+000
 1.990e+000  1.311e+000  0.000e+000
 1.742e+000  1.316e+000  0.000e+000
 1.493e+000  1.322e+000  0.000e+000
 1.244e+000  1.324e+000  0.000e+000
 9.954e-001  1.326e+000  0.000e+000
 7.466e-001  1.328e+000  0.000e+000
 4.978e-001  1.330e+000  0.000e+000
 2.490e-001  1.332e+000  0.000e+000
 2.488e-004  1.333e+000  0.000e+000
 1.500e+001  0.000e+000  0.000e+000
 1.475e+001  5.521e-002  0.000e+000
 1.450e+001  1.104e-001  0.000e+000
 1.425e+001  1.656e-001  0.000e+000
 1.400e+001  2.208e-001  0.000e+000
 1.375e+001  2.760e-001  0.000e+000
 1.350e+001  3.312e-001  0.000e+000
 1.325e+001  3.779e-001  0.000e+000
 1.300e+001  4.245e-001  0.000e+000
 1.274e+001  4.712e-001  0.000e+000
 1.249e+001  5.178e-001  0.000e+000
 1.224e+001  5.645e-001  0.000e+000
 1.199e+001  6.108e-001  0.000e+000
 1.174e+001  6.497e-001  0.000e+000
 1.148e+001  6.887e-001  0.000e+000
 1.123e+001  7.277e-001  0.000e+000
 1.098e+001  7.666e-001  0.000e+000
 1.072e+001  8.056e-001  0.000e+000
 1.047e+001  8.437e-001  0.000e+000
 1.022e+001  8.757e-001  0.000e+000
 9.962e+000  9.078e-001  0.000e+000
 9.708e+000  9.398e-001  0.000e+000
 9.454e+000  9.718e-001  0.000e+000
 9.200e+000  1.004e+000  0.000e+000
 8.946e+000  1.034e+000  0.000e+000
 8.691e+000  1.060e+000  0.000e+000
 8.436e+000  1.086e+000  0.000e+000
 8.182e+000  1.112e+000  0.000e+000
 7.927e+000  1.138e+000  0.000e+000
 7.672e+000  1.164e+000  0.000e+000
 7.417e+000  1.188e+000  0.000e+000
 7.162e+000  1.208e+000  0.000e+000
 6.907e+000  1.228e+000  0.000e+000
 6.651e+000  1.248e+000  0.000e+000
 6.396e+000  1.269e+000  0.000e+000
 6.141e+000  1.289e+000  0.000e+000
 5.885e+000  1.307e+000  0.000e+000
 5.630e+000  1.322e+000  0.000e+000
 5.374e+000  1.338e+000  0.000e+000
 5.119e+000  1.353e+000  0.000e+000
 4.863e+000  1.368e+000  0.000e+000
 4.607e+000  1.384e+000  0.000e+000
 4.352e+000  1.396e+000  0.000e+000
 4.096e+000  1.407e+000  0.000e+000
 3.840e+000  1.417e+000  0.000e+000
 3.584e+000  1.428e+000  0.000e+000
 3.328e+000  1.438e+000  0.000e+000
 3.072e+000  1.449e+000  0.000e+000
 2.817e+000  1.456e+000  0.000e+000
 2.561e+000  1.463e+000  0.000e+000
 2.305e+000  1.469e+000  0.000e+000
 2.049e+000  1.475e+000  0.000e+000
 1.793e+000  1.481e+000  0.000e+000
 1.537e+000  1.487e+000  0.000e+000
 1.281e+000  1.490e+000  0.000e+000
 1.024e+000  1.492e+000  0.000e+000
 7.684e-001  1.494e+000  0.000e+000
 5.124e-001  1.496e+000  0.000e+000
 2.563e-001  1.498e+000  0.000e+000
 2.561e-004  1.500e+000  0.000e+000
       1        2       62       61
       2        3       63       62
       3        4       64       63
       4        5       65       64
       5        6       66       65
       6        7       67       66
       7        8       68       67
       8        9       69       68
       9       10       70       69
      10       11       71       70
      11       12       72       71
      12       13       73       72
      13       14       74       73
      14       15       75       74
      15       16       76       75
      16       17       77       76
      17       18       78       77
      18       19       79       78
      19       20       80       79
      20       21       81       80
      21       22       82       81
      22       23       83       82
      23       24       84       83
      24       25       85       84
      25       26       86       85
      26       27       87       86
      27       28       88       87
      28       29       89       88
      29       30       90       89
      30       31       91       90
      31       32       92       91
      32       33       93       92
      33       34       94       93
      34       35       95       94
      35       36       96       95
      36       37       97       96
      37       38       98       97
      38       39       99       98
      39       40      100       99
      40       41      101      100
      41       42      102      101
      42       43      103      102
      43       44      104      103
      44       45      105      104
      45       46      106      105
      46       47      107      106
      47       48      108      107
      48       49      109      108
      49       50      110      109
      50       51      111      110
      51       52      112      111
      52       53      113      112
      53       54      114      113
      54       55      115      114
      55       56      116      115
      56       57      117      116
      57       58      118      117
      58       59      119      118
      59       60      120      119
      61       62      122      121
      62       63      123      122
      63       64      124      123
      64       65      125      124
      65       66      126      125
      66       67      127      126
      67       68      128      127
      68       69      129      128
      69       70      130      129
      70       71      131      130
      71       72      132      131
      72       73      133      132
      73       74      134      133
      74       75      135      134
      75       76      136      135
      76       77      137      136
      77       78      138      137
      78       79      139      138
      79       80      140      139
      80       81      141      140
      81       82      142      141
      82       83      143      142
      83       84      144      143
      84       85      145      144
      85       86      146      145
      86       87      147      146
      87       88      148      147
      88       89      149      148
      89       90      150      149
      90       91      151      150
      91       92      152      151
      92       93      153      152
      93       94      154      153
      94       95      155      154
      95       96      156      155
      96       97      157      156
      97       98      158      157
      98       99      159      158
      99      100      160      159
     100      101      161      160
     101      102      162      161
     102      103      163      162
     103      104      164      163
     104      105      165      164
     105      106      166      165
     106      107      167      166
     107      108      168      167
     108      109      169      168
     109      110      170      169
     110      111      171      170
     111      112      172      171
     112      113      173      172
     113      114      174      173
     114      115      175      174
     115      116      176      175
     116      117      177      176
     117      118      178      177
     118      119      179      178
     119      120      180      179
     121      122      182      181
     122      123      183      182
     123      124      184      183
     124      125      185      184
     125      126      186      185
     126      127      187      186
     127      128      188      187
     128      129      189      188
     129      130      190      189
     130      131      191      190
     131      132      192      191
     132      133      193      192
     133      134      194      193
     134      135      195      194
     135      136      196      195
     136      137      197      196
     137      138      198      197
     138      139      199      198
     139      140      200      199
     140      141      201      200
     141      142      202      201
     142      143      203      202
     143      144      204      203
     144      145      205      204
     145      146      206      205
     146      147      207      206
     147      148      208      207
     148      149      209      208
     149      150      210      209
     150      151      211      210
     151      152      212      211
     152      153      213      212
     153      154      214      213
     154      155      215      214
     155      156      216      215
     156      157      217      216
     157      158      218      217
     158      159      219      218
     159      160      220      219
     160      161      221      220
     161      162      222      221
     162      163      223      222
     163      164      224      223
     164      165      225      224
     165      166      226      225
     166      167      227      226
     167      168      228      227
     168      169      229      228
     169      170      230      229
     170      171      231      230
     171      172      232      231
     172      173      233      232
     173      174      234      233
     174      175      235      234
     175      176      236      235
     176      177      237      236
     177      178      238      237
     178      179      239      238
     179      180      240      239
     181      182      242      241
     182      183      243      242
     183      184      244      243
     184      185      245      244
     185      186      246      245
     186      187      247      246
     187      188      248      247
     188      189      249      248
     189      190      250      249
     190      191      251      250
     191      192      252      251
     192      193      253      252
     193      194      254      253
     194      195      255      254
     195      196      256      255
     196      197      257      256
     197      198      258      257
     198      199      259      258
     199      200      260      259
     200      201      261      260
     201      202      262      261
     202      203      263      262
     203      204      264      263
     204      205      265      264
     205      206      266      265
     206      207      267      266
     207      208      268      267
     208      209      269      268
     209      210      270      269
     210      211      271      270
     211      212      272      271
     212      213      273      272
     213      214      274      273
     214      215      275      274
     215      216      276      275
     216      217      277      276
     217      218      278      277
     218      219      279      278
     219      220      280      279
     220      221      281      280
     221      222      282      281
     222      223      283      282
     223      224      284      283
     224      225      285      284
     225      226      286      285
     226      227      287      286
     227      228      288      287
     228      229      289      288
     229      230      290      289
     230      231      291      290
     231      232      292      291
     232      233      293      292
     233      234      294      293