TITLE = "NODEELEMENT"
VARIABLES = "X", "Y", "Z"
ZONE N=    2181, E=    2045, F=FEPOINT, ET=QUADRILATERAL
 3.830e+002  0.000e+000  1.480e+000
 3.856e+002  0.000e+000  2.141e+000
 3.880e+002  0.000e+000  3.064e+000
 3.904e+002  0.000e+000  4.358e+000
 3.924e+002  0.000e+000  6.005e+000
 3.938e+002  0.000e+000  8.181e+000
 3.936e+002  0.000e+000  1.068e+001
 3.919e+002  0.000e+000  1.258e+001
 3.895e+002  0.000e+000  1.359e+001
 3.869e+002  0.000e+000  1.430e+001
 3.869e+002  0.000e+000  1.677e+001
 3.876e+002  0.000e+000  1.881e+001
 3.883e+002  0.000e+000  2.084e+001
 3.891e+002  0.000e+000  2.285e+001
 3.899e+002  0.000e+000  2.488e+001
 3.906e+002  0.000e+000  2.693e+001
 3.911e+002  0.000e+000  2.902e+001
 3.917e+002  0.000e+000  3.112e+001
 3.923e+002  0.000e+000  3.320e+001
 3.930e+002  0.000e+000  3.523e+001
 3.830e+002  0.000e+000  1.481e+000
 3.843e+002  7.322e-001  2.227e+000
 3.855e+002  1.130e+000  3.379e+000
 3.867e+002  1.313e+000  4.841e+000
 3.877e+002  1.353e+000  6.505e+000
 3.884e+002  1.240e+000  8.428e+000
 3.883e+002  1.058e+000  1.050e+001
 3.875e+002  7.962e-001  1.224e+001
 3.862e+002  4.358e-001  1.351e+001
 3.850e+002  3.619e-001  1.470e+001
 3.849e+002  4.389e-001  1.677e+001
 3.853e+002  8.762e-001  1.918e+001
 3.857e+002  1.552e+000  2.148e+001
 3.861e+002  2.502e+000  2.358e+001
 3.865e+002  3.597e+000  2.555e+001
 3.868e+002  4.736e+000  2.748e+001
 3.871e+002  5.894e+000  2.941e+001
 3.873e+002  7.071e+000  3.131e+001
 3.876e+002  8.275e+000  3.317e+001
 3.880e+002  9.269e+000  3.523e+001
 3.830e+002  0.000e+000  1.482e+000
 3.830e+002  1.464e+000  2.313e+000
 3.830e+002  2.260e+000  3.694e+000
 3.830e+002  2.626e+000  5.323e+000
 3.830e+002  2.706e+000  7.005e+000
 3.830e+002  2.480e+000  8.674e+000
 3.830e+002  2.116e+000  1.031e+001
 3.830e+002  1.592e+000  1.191e+001
 3.830e+002  8.716e-001  1.343e+001
 3.830e+002  7.238e-001  1.510e+001
 3.830e+002  8.778e-001  1.677e+001
 3.830e+002  1.752e+000  1.955e+001
 3.830e+002  3.103e+000  2.211e+001
 3.830e+002  5.003e+000  2.431e+001
 3.830e+002  7.194e+000  2.622e+001
 3.830e+002  9.472e+000  2.803e+001
 3.830e+002  1.179e+001  2.979e+001
 3.830e+002  1.414e+001  3.150e+001
 3.830e+002  1.655e+001  3.314e+001
 3.830e+002  1.854e+001  3.523e+001
 3.790e+002  0.000e+000  1.175e+000
 3.791e+002  1.577e+000  1.924e+000
 3.791e+002  2.567e+000  3.232e+000
 3.791e+002  3.119e+000  4.844e+000
 3.791e+002  3.333e+000  6.569e+000
 3.791e+002  3.206e+000  8.314e+000
 3.791e+002  2.902e+000  1.004e+001
 3.791e+002  2.457e+000  1.173e+001
 3.791e+002  1.900e+000  1.335e+001
 3.792e+002  1.886e+000  1.508e+001
 3.792e+002  2.200e+000  1.677e+001
 3.793e+002  3.286e+000  1.945e+001
 3.794e+002  4.773e+000  2.194e+001
 3.794e+002  6.745e+000  2.410e+001
 3.795e+002  8.972e+000  2.602e+001
 3.795e+002  1.128e+001  2.785e+001
 3.795e+002  1.362e+001  2.963e+001
 3.795e+002  1.599e+001  3.137e+001
 3.795e+002  1.841e+001  3.305e+001
 3.795e+002  2.035e+001  3.523e+001
 3.751e+002  0.000e+000  8.683e-001
 3.751e+002  1.690e+000  1.534e+000
 3.752e+002  2.875e+000  2.771e+000
 3.752e+002  3.612e+000  4.365e+000
 3.752e+002  3.961e+000  6.133e+000
 3.752e+002  3.932e+000  7.953e+000
 3.752e+002  3.688e+000  9.762e+000
 3.752e+002  3.321e+000  1.154e+001
 3.753e+002  2.929e+000  1.327e+001
 3.754e+002  3.048e+000  1.506e+001
 3.755e+002  3.522e+000  1.677e+001
 3.756e+002  4.820e+000  1.935e+001
 3.758e+002  6.443e+000  2.177e+001
 3.759e+002  8.487e+000  2.390e+001
 3.759e+002  1.075e+001  2.582e+001
 3.759e+002  1.308e+001  2.766e+001
 3.760e+002  1.545e+001  2.947e+001
 3.760e+002  1.784e+001  3.124e+001
 3.760e+002  2.027e+001  3.296e+001
 3.760e+002  2.216e+001  3.523e+001
 3.711e+002  0.000e+000  5.615e-001
 3.712e+002  1.803e+000  1.145e+000
 3.712e+002  3.182e+000  2.309e+000
 3.713e+002  4.105e+000  3.885e+000
 3.713e+002  4.589e+000  5.698e+000
 3.713e+002  4.658e+000  7.593e+000
 3.713e+002  4.473e+000  9.486e+000
 3.714e+002  4.185e+000  1.136e+001
 3.715e+002  3.958e+000  1.320e+001
 3.716e+002  4.211e+000  1.504e+001
 3.717e+002  4.844e+000  1.677e+001
 3.720e+002  6.353e+000  1.925e+001
 3.722e+002  8.112e+000  2.160e+001
 3.723e+002  1.023e+001  2.369e+001
 3.724e+002  1.253e+001  2.562e+001
 3.724e+002  1.489e+001  2.747e+001
 3.725e+002  1.727e+001  2.930e+001
 3.725e+002  1.968e+001  3.111e+001
 3.725e+002  2.212e+001  3.287e+001
 3.725e+002  2.397e+001  3.523e+001
 3.671e+002  0.000e+000  2.546e-001
 3.672e+002  1.916e+000  7.550e-001
 3.673e+002  3.490e+000  1.848e+000
 3.674e+002  4.599e+000  3.406e+000
 3.674e+002  5.216e+000  5.262e+000
 3.675e+002  5.384e+000  7.233e+000
 3.674e+002  5.259e+000  9.210e+000
 3.675e+002  5.050e+000  1.118e+001
 3.676e+002  4.987e+000  1.312e+001
 3.677e+002  5.373e+000  1.502e+001
 3.679e+002  6.166e+000  1.677e+001
 3.683e+002  7.887e+000  1.915e+001
 3.685e+002  9.782e+000  2.144e+001
 3.687e+002  1.197e+001  2.349e+001
 3.688e+002  1.431e+001  2.541e+001
 3.689e+002  1.670e+001  2.729e+001
 3.690e+002  1.910e+001  2.914e+001
 3.690e+002  2.153e+001  3.098e+001
 3.690e+002  2.398e+001  3.279e+001
 3.689e+002  2.578e+001  3.523e+001
 3.632e+002  0.000e+000  0.000e+000
 3.633e+002  2.028e+000  4.107e-001
 3.634e+002  3.792e+000  1.414e+000
 3.635e+002  5.091e+000  2.939e+000
 3.635e+002  5.850e+000  4.831e+000
 3.636e+002  6.122e+000  6.874e+000
 3.636e+002  6.065e+000  8.934e+000
 3.636e+002  5.938e+000  1.099e+001
 3.638e+002  6.023e+000  1.304e+001
 3.639e+002  6.535e+000  1.499e+001
 3.642e+002  7.488e+000  1.677e+001
 3.646e+002  9.421e+000  1.906e+001
 3.649e+002  1.145e+001  2.127e+001
 3.652e+002  1.371e+001  2.328e+001
 3.653e+002  1.609e+001  2.521e+001
 3.654e+002  1.850e+001  2.710e+001
 3.654e+002  2.093e+001  2.898e+001
 3.655e+002  2.338e+001  3.084e+001
 3.655e+002  2.584e+001  3.270e+001
 3.654e+002  2.759e+001  3.523e+001
 3.592e+002  0.000e+000  0.000e+000
 3.593e+002  2.137e+000  3.345e-001
 3.595e+002  4.056e+000  1.203e+000
 3.596e+002  5.576e+000  2.597e+000
 3.597e+002  6.559e+000  4.452e+000
 3.597e+002  7.022e+000  6.532e+000
 3.597e+002  7.132e+000  8.664e+000
 3.598e+002  7.154e+000  1.080e+001
 3.600e+002  7.367e+000  1.292e+001
 3.602e+002  7.978e+000  1.493e+001
 3.605e+002  8.989e+000  1.677e+001
 3.609e+002  1.088e+001  1.899e+001
 3.612e+002  1.291e+001  2.114e+001
 3.615e+002  1.516e+001  2.313e+001
 3.616e+002  1.749e+001  2.505e+001
 3.617e+002  1.987e+001  2.695e+001
 3.617e+002  2.225e+001  2.884e+001
 3.618e+002  2.465e+001  3.073e+001
 3.618e+002  2.701e+001  3.265e+001
 3.617e+002  2.850e+001  3.523e+001
 3.552e+002  0.000e+000  0.000e+000
 3.554e+002  2.245e+000  2.584e-001
 3.555e+002  4.321e+000  9.913e-001
 3.557e+002  6.061e+000  2.256e+000
 3.558e+002  7.268e+000  4.074e+000
 3.559e+002  7.923e+000  6.189e+000
 3.559e+002  8.199e+000  8.393e+000
 3.560e+002  8.370e+000  1.061e+001
 3.563e+002  8.711e+000  1.280e+001
 3.565e+002  9.426e+000  1.487e+001
 3.568e+002  1.051e+001  1.677e+001
 3.572e+002  1.233e+001  1.894e+001
 3.575e+002  1.429e+001  2.104e+001
 3.577e+002  1.643e+001  2.301e+001
 3.578e+002  1.865e+001  2.493e+001
 3.578e+002  2.090e+001  2.683e+001
 3.579e+002  2.315e+001  2.873e+001
 3.579e+002  2.540e+001  3.064e+001
 3.579e+002  2.753e+001  3.264e+001
 3.577e+002  2.870e+001  3.523e+001
 3.512e+002  0.000e+000  0.000e+000
 3.514e+002  2.353e+000  1.823e-001
 3.516e+002  4.585e+000  7.799e-001
 3.517e+002  6.546e+000  1.914e+000
 3.519e+002  7.977e+000  3.696e+000
 3.520e+002  8.823e+000  5.846e+000
 3.521e+002  9.265e+000  8.123e+000
 3.522e+002  9.586e+000  1.042e+001
 3.525e+002  1.006e+001  1.268e+001
 3.528e+002  1.087e+001  1.481e+001
 3.531e+002  1.202e+001  1.677e+001
 3.535e+002  1.378e+001  1.889e+001
 3.538e+002  1.566e+001  2.093e+001
 3.539e+002  1.770e+001  2.288e+001
 3.540e+002  1.981e+001  2.480e+001
 3.540e+002  2.193e+001  2.671e+001
 3.540e+002  2.405e+001  2.862e+001
 3.540e+002  2.616e+001  3.055e+001
 3.540e+002  2.806e+001  3.263e+001
 3.538e+002  2.889e+001  3.523e+001
 3.473e+002  0.000e+000  0.000e+000
 3.474e+002  2.461e+000  1.062e-001
 3.476e+002  4.850e+000  5.686e-001
 3.478e+002  7.031e+000  1.573e+000
 3.480e+002  8.686e+000  3.318e+000
 3.482e+002  9.724e+000  5.504e+000
 3.483e+002  1.033e+001  7.853e+000
 3.484e+002  1.080e+001  1.023e+001
 3.488e+002  1.140e+001  1.256e+001
 3.491e+002  1.232e+001  1.475e+001
 3.494e+002  1.354e+001  1.677e+001
 3.497e+002  1.522e+001  1.884e+001
 3.500e+002  1.703e+001  2.083e+001
 3.502e+002  1.898e+001  2.276e+001
 3.502e+002  2.097e+001  2.467e+001
 3.502e+002  2.297e+001  2.658e+001
 3.502e+002  2.495e+001  2.851e+001
 3.501e+002  2.691e+001  3.046e+001
 3.501e+002  2.858e+001  3.262e+001
 3.498e+002  2.908e+001  3.523e+001
 3.433e+002  0.000e+000  0.000e+000
 3.435e+002  2.570e+000  5.058e-002
 3.437e+002  5.103e+000  3.936e-001
 3.439e+002  7.491e+000  1.263e+000
 3.441e+002  9.373e+000  2.946e+000
 3.443e+002  1.061e+001  5.156e+000
 3.445e+002  1.139e+001  7.576e+000
 3.447e+002  1.202e+001  1.004e+001
 3.450e+002  1.274e+001  1.244e+001
 3.453e+002  1.377e+001  1.469e+001
 3.457e+002  1.506e+001  1.677e+001
 3.460e+002  1.667e+001  1.878e+001
 3.463e+002  1.841e+001  2.073e+001
 3.464e+002  2.025e+001  2.263e+001
 3.464e+002  2.213e+001  2.454e+001
 3.464e+002  2.400e+001  2.646e+001
 3.463e+002  2.585e+001  2.840e+001
 3.463e+002  2.767e+001  3.037e+001
 3.461e+002  2.911e+001  3.260e+001
 3.459e+002  2.927e+001  3.523e+001
 3.393e+002  0.000e+000  0.000e+000
 3.395e+002  2.678e+000  4.027e-002
 3.397e+002  5.324e+000  3.253e-001
 3.400e+002  7.847e+000  1.082e+000
 3.402e+002  9.931e+000  2.617e+000
 3.404e+002  1.139e+001  4.761e+000
 3.406e+002  1.236e+001  7.201e+000
 3.408e+002  1.311e+001  9.730e+000
 3.412e+002  1.391e+001  1.223e+001
 3.415e+002  1.498e+001  1.459e+001
 3.419e+002  1.633e+001  1.677e+001
 3.422e+002  1.789e+001  1.875e+001
 3.425e+002  1.957e+001  2.067e+001
 3.426e+002  2.132e+001  2.256e+001
 3.425e+002  2.309e+001  2.447e+001
 3.425e+002  2.484e+001  2.640e+001
 3.424e+002  2.654e+001  2.836e+001
 3.423e+002  2.814e+001  3.036e+001
 3.422e+002  2.930e+001  3.264e+001
 3.419e+002  2.933e+001  3.523e+001
 3.353e+002  0.000e+000  0.000e+000
 3.355e+002  2.786e+000  2.997e-002
 3.358e+002  5.544e+000  2.569e-001
 3.360e+002  8.204e+000  9.019e-001
 3.363e+002  1.049e+001  2.287e+000
 3.366e+002  1.218e+001  4.367e+000
 3.368e+002  1.333e+001  6.827e+000
 3.370e+002  1.420e+001  9.419e+000
 3.374e+002  1.506e+001  1.201e+001
 3.377e+002  1.615e+001  1.448e+001
 3.381e+002  1.751e+001  1.677e+001
 3.384e+002  1.900e+001  1.874e+001
 3.386e+002  2.058e+001  2.065e+001
 3.387e+002  2.223e+001  2.254e+001
 3.387e+002  2.390e+001  2.445e+001
 3.386e+002  2.555e+001  2.637e+001
 3.385e+002  2.708e+001  2.836e+001
 3.384e+002  2.842e+001  3.042e+001
 3.382e+002  2.931e+001  3.271e+001
 3.380e+002  2.933e+001  3.523e+001
 3.314e+002  0.000e+000  0.000e+000
 3.316e+002  2.895e+000  1.966e-002
 3.318e+002  5.765e+000  1.886e-001
 3.321e+002  8.560e+000  7.213e-001
 3.324e+002  1.105e+001  1.957e+000
 3.327e+002  1.296e+001  3.972e+000
 3.329e+002  1.429e+001  6.453e+000
 3.332e+002  1.529e+001  9.108e+000
 3.336e+002  1.621e+001  1.179e+001
 3.339e+002  1.731e+001  1.436e+001
 3.343e+002  1.869e+001  1.677e+001
 3.346e+002  2.010e+001  1.872e+001
 3.348e+002  2.159e+001  2.063e+001
 3.348e+002  2.314e+001  2.252e+001
 3.348e+002  2.471e+001  2.443e+001
 3.347e+002  2.625e+001  2.635e+001
 3.346e+002  2.762e+001  2.837e+001
 3.344e+002  2.870e+001  3.048e+001
 3.343e+002  2.932e+001  3.278e+001
 3.340e+002  2.933e+001  3.523e+001
 3.274e+002  0.000e+000  0.000e+000
 3.276e+002  3.003e+000  9.355e-003
 3.279e+002  5.986e+000  1.202e-001
 3.282e+002  8.917e+000  5.406e-001
 3.285e+002  1.161e+001  1.628e+000
 3.288e+002  1.374e+001  3.578e+000
 3.291e+002  1.526e+001  6.078e+000
 3.294e+002  1.638e+001  8.797e+000
 3.298e+002  1.736e+001  1.156e+001
 3.301e+002  1.848e+001  1.425e+001
 3.304e+002  1.988e+001  1.677e+001
 3.307e+002  2.120e+001  1.870e+001
 3.309e+002  2.260e+001  2.061e+001
 3.310e+002  2.405e+001  2.250e+001
 3.309e+002  2.552e+001  2.440e+001
 3.308e+002  2.696e+001  2.633e+001
 3.306e+002  2.817e+001  2.837e+001
 3.305e+002  2.898e+001  3.054e+001
 3.303e+002  2.932e+001  3.284e+001
 3.301e+002  2.933e+001  3.523e+001
 3.234e+002  0.000e+000  0.000e+000
 3.236e+002  3.105e+000  3.594e-003
 3.239e+002  6.195e+000  7.323e-002
 3.242e+002  9.251e+000  3.965e-001
 3.246e+002  1.213e+001  1.331e+000
 3.250e+002  1.449e+001  3.196e+000
 3.253e+002  1.621e+001  5.707e+000
 3.256e+002  1.748e+001  8.486e+000
 3.260e+002  1.851e+001  1.134e+001
 3.263e+002  1.964e+001  1.414e+001
 3.266e+002  2.106e+001  1.677e+001
 3.269e+002  2.231e+001  1.868e+001
 3.271e+002  2.361e+001  2.059e+001
 3.271e+002  2.496e+001  2.248e+001
 3.270e+002  2.633e+001  2.438e+001
 3.269e+002  2.766e+001  2.631e+001
 3.267e+002  2.871e+001  2.837e+001
 3.265e+002  2.926e+001  3.060e+001
 3.264e+002  2.933e+001  3.291e+001
 3.261e+002  2.933e+001  3.523e+001
 3.194e+002  0.000e+000  0.000e+000
 3.197e+002  3.201e+000  2.768e-003
 3.200e+002  6.386e+000  5.744e-002
 3.203e+002  9.543e+000  3.232e-001
 3.206e+002  1.255e+001  1.135e+000
 3.210e+002  1.509e+001  2.888e+000
 3.214e+002  1.697e+001  5.376e+000
 3.217e+002  1.835e+001  8.192e+000
 3.221e+002  1.949e+001  1.112e+001
 3.224e+002  2.065e+001  1.401e+001
 3.228e+002  2.205e+001  1.677e+001
 3.230e+002  2.323e+001  1.868e+001
 3.232e+002  2.445e+001  2.059e+001
 3.232e+002  2.571e+001  2.249e+001
 3.231e+002  2.695e+001  2.440e+001
 3.229e+002  2.810e+001  2.636e+001
 3.228e+002  2.894e+001  2.845e+001
 3.226e+002  2.933e+001  3.067e+001
 3.224e+002  2.933e+001  3.295e+001
 3.222e+002  2.933e+001  3.523e+001
 3.154e+002  0.000e+000  0.000e+000
 3.157e+002  3.297e+000  1.942e-003
 3.160e+002  6.578e+000  4.164e-002
 3.163e+002  9.834e+000  2.500e-001
 3.167e+002  1.297e+001  9.382e-001
 3.171e+002  1.568e+001  2.579e+000
 3.175e+002  1.773e+001  5.044e+000
 3.178e+002  1.923e+001  7.898e+000
 3.182e+002  2.044e+001  1.089e+001
 3.186e+002  2.161e+001  1.388e+001
 3.189e+002  2.296e+001  1.677e+001
 3.191e+002  2.406e+001  1.869e+001
 3.193e+002  2.519e+001  2.060e+001
 3.193e+002  2.635e+001  2.252e+001
 3.191e+002  2.745e+001  2.446e+001
 3.190e+002  2.839e+001  2.645e+001
 3.188e+002  2.903e+001  2.854e+001
 3.186e+002  2.933e+001  3.075e+001
 3.185e+002  2.933e+001  3.299e+001
 3.182e+002  2.933e+001  3.523e+001
 3.115e+002  0.000e+000  0.000e+000
 3.118e+002  3.393e+000  1.117e-003
 3.121e+002  6.769e+000  2.585e-002
 3.124e+002  1.013e+001  1.768e-001
 3.128e+002  1.339e+001  7.419e-001
 3.132e+002  1.627e+001  2.271e+000
 3.136e+002  1.848e+001  4.713e+000
 3.140e+002  2.011e+001  7.604e+000
 3.144e+002  2.140e+001  1.066e+001
 3.147e+002  2.258e+001  1.375e+001
 3.150e+002  2.388e+001  1.677e+001
 3.152e+002  2.489e+001  1.870e+001
 3.153e+002  2.593e+001  2.062e+001
 3.153e+002  2.699e+001  2.254e+001
 3.152e+002  2.795e+001  2.451e+001
 3.150e+002  2.869e+001  2.654e+001
 3.148e+002  2.913e+001  2.864e+001
 3.147e+002  2.933e+001  3.082e+001
 3.145e+002  2.933e+001  3.303e+001
 3.142e+002  2.933e+001  3.523e+001
 3.075e+002  0.000e+000  0.000e+000
 3.078e+002  3.489e+000  2.908e-004
 3.081e+002  6.960e+000  1.006e-002
 3.084e+002  1.042e+001  1.035e-001
 3.088e+002  1.381e+001  5.456e-001
 3.093e+002  1.687e+001  1.962e+000
 3.097e+002  1.924e+001  4.381e+000
 3.101e+002  2.099e+001  7.310e+000
 3.105e+002  2.235e+001  1.043e+001
 3.108e+002  2.354e+001  1.362e+001
 3.111e+002  2.479e+001  1.677e+001
 3.113e+002  2.571e+001  1.870e+001
 3.114e+002  2.666e+001  2.064e+001
 3.114e+002  2.763e+001  2.257e+001
 3.113e+002  2.845e+001  2.456e+001
 3.111e+002  2.898e+001  2.663e+001
 3.109e+002  2.922e+001  2.874e+001
 3.107e+002  2.933e+001  3.090e+001
 3.105e+002  2.933e+001  3.307e+001
 3.103e+002  2.933e+001  3.523e+001
 3.035e+002  0.000e+000  0.000e+000
 3.038e+002  3.570e+000  0.000e+000
 3.042e+002  7.127e+000  2.760e-003
 3.045e+002  1.067e+001  5.954e-002
 3.049e+002  1.418e+001  3.992e-001
 3.054e+002  1.741e+001  1.687e+000
 3.058e+002  1.997e+001  4.059e+000
 3.062e+002  2.186e+001  7.017e+000
 3.067e+002  2.331e+001  1.021e+001
 3.070e+002  2.451e+001  1.349e+001
 3.072e+002  2.570e+001  1.677e+001
 3.074e+002  2.654e+001  1.871e+001
 3.075e+002  2.740e+001  2.065e+001
 3.075e+002  2.827e+001  2.260e+001
 3.073e+002  2.895e+001  2.461e+001
 3.071e+002  2.928e+001  2.672e+001
 3.069e+002  2.932e+001  2.884e+001
 3.067e+002  2.933e+001  3.097e+001
 3.066e+002  2.933e+001  3.310e+001
 3.063e+002  2.933e+001  3.523e+001
 2.995e+002  0.000e+000  0.000e+000
 2.999e+002  3.644e+000  0.000e+000
 3.002e+002  7.275e+000  2.115e-003
 3.005e+002  1.090e+001  4.596e-002
 3.009e+002  1.448e+001  3.330e-001
 3.014e+002  1.782e+001  1.506e+000
 3.019e+002  2.053e+001  3.792e+000
 3.023e+002  2.253e+001  6.745e+000
 3.027e+002  2.401e+001  1.001e+001
 3.030e+002  2.519e+001  1.339e+001
 3.033e+002  2.634e+001  1.677e+001
 3.035e+002  2.709e+001  1.873e+001
 3.036e+002  2.785e+001  2.068e+001
 3.035e+002  2.858e+001  2.265e+001
 3.033e+002  2.911e+001  2.467e+001
 3.031e+002  2.933e+001  2.678e+001
 3.030e+002  2.933e+001  2.889e+001
 3.028e+002  2.933e+001  3.101e+001
 3.026e+002  2.933e+001  3.312e+001
 3.024e+002  2.933e+001  3.523e+001
 2.956e+002  0.000e+000  0.000e+000
 2.959e+002  3.718e+000  0.000e+000
 2.963e+002  7.422e+000  1.471e-003
 2.966e+002  1.112e+001  3.237e-002
 2.970e+002  1.478e+001  2.667e-001
 2.975e+002  1.823e+001  1.325e+000
 2.980e+002  2.108e+001  3.524e+000
 2.984e+002  2.321e+001  6.473e+000
 2.988e+002  2.468e+001  9.819e+000
 2.991e+002  2.583e+001  1.328e+001
 2.993e+002  2.690e+001  1.677e+001
 2.995e+002  2.755e+001  1.874e+001
 2.996e+002  2.819e+001  2.072e+001
 2.995e+002  2.876e+001  2.271e+001
 2.994e+002  2.916e+001  2.474e+001
 2.992e+002  2.933e+001  2.683e+001
 2.990e+002  2.933e+001  2.893e+001
 2.988e+002  2.933e+001  3.103e+001
 2.987e+002  2.933e+001  3.313e+001
 2.984e+002  2.933e+001  3.523e+001
 2.916e+002  0.000e+000  0.000e+000
 2.919e+002  3.792e+000  0.000e+000
 2.923e+002  7.570e+000  8.263e-004
 2.926e+002  1.134e+001  1.879e-002
 2.930e+002  1.508e+001  2.004e-001
 2.935e+002  1.864e+001  1.145e+000
 2.940e+002  2.164e+001  3.257e+000
 2.945e+002  2.389e+001  6.201e+000
 2.949e+002  2.536e+001  9.628e+000
 2.952e+002  2.647e+001  1.318e+001
 2.954e+002  2.745e+001  1.677e+001
 2.955e+002  2.801e+001  1.876e+001
 2.956e+002  2.853e+001  2.075e+001
 2.956e+002  2.894e+001  2.277e+001
 2.954e+002  2.922e+001  2.481e+001
 2.952e+002  2.933e+001  2.689e+001
 2.950e+002  2.933e+001  2.898e+001
 2.949e+002  2.933e+001  3.106e+001
 2.947e+002  2.933e+001  3.315e+001
 2.945e+002  2.933e+001  3.523e+001
 2.876e+002  0.000e+000  0.000e+000
 2.880e+002  3.866e+000  0.000e+000
 2.884e+002  7.717e+000  1.818e-004
 2.886e+002  1.156e+001  5.207e-003
 2.891e+002  1.538e+001  1.341e-001
 2.896e+002  1.905e+001  9.640e-001
 2.901e+002  2.220e+001  2.989e+000
 2.906e+002  2.457e+001  5.929e+000
 2.910e+002  2.604e+001  9.436e+000
 2.912e+002  2.711e+001  1.308e+001
 2.914e+002  2.801e+001  1.677e+001
 2.916e+002  2.846e+001  1.878e+001
 2.917e+002  2.886e+001  2.079e+001
 2.916e+002  2.912e+001  2.282e+001
 2.914e+002  2.927e+001  2.487e+001
 2.912e+002  2.933e+001  2.694e+001
 2.911e+002  2.933e+001  2.902e+001
 2.909e+002  2.933e+001  3.109e+001
 2.908e+002  2.933e+001  3.316e+001
 2.905e+002  2.932e+001  3.523e+001
 2.836e+002  0.000e+000  0.000e+000
 2.840e+002  3.914e+000  0.000e+000
 2.844e+002  7.819e+000  0.000e+000
 2.847e+002  1.172e+001  3.587e-004
 2.851e+002  1.561e+001  9.344e-002
 2.857e+002  1.938e+001  8.156e-001
 2.862e+002  2.269e+001  2.744e+000
 2.866e+002  2.520e+001  5.672e+000
 2.871e+002  2.670e+001  9.248e+000
 2.873e+002  2.775e+001  1.298e+001
 2.874e+002  2.857e+001  1.677e+001
 2.876e+002  2.892e+001  1.879e+001
 2.877e+002  2.920e+001  2.083e+001
 2.876e+002  2.930e+001  2.288e+001
 2.875e+002  2.932e+001  2.494e+001
 2.873e+002  2.933e+001  2.700e+001
 2.871e+002  2.933e+001  2.906e+001
 2.869e+002  2.933e+001  3.112e+001
 2.868e+002  2.932e+001  3.317e+001
 2.866e+002  2.932e+001  3.523e+001
 2.797e+002  0.000e+000  0.000e+000
 2.800e+002  3.956e+000  0.000e+000
 2.805e+002  7.904e+000  0.000e+000
 2.807e+002  1.185e+001  2.731e-004
 2.812e+002  1.578e+001  7.460e-002
 2.817e+002  1.961e+001  7.149e-001
 2.822e+002  2.300e+001  2.560e+000
 2.827e+002  2.556e+001  5.498e+000
 2.831e+002  2.702e+001  9.131e+000
 2.833e+002  2.801e+001  1.292e+001
 2.835e+002  2.874e+001  1.677e+001
 2.836e+002  2.903e+001  1.880e+001
 2.837e+002  2.925e+001  2.084e+001
 2.837e+002  2.932e+001  2.289e+001
 2.835e+002  2.933e+001  2.495e+001
 2.833e+002  2.933e+001  2.701e+001
 2.831e+002  2.933e+001  2.906e+001
 2.830e+002  2.932e+001  3.112e+001
 2.828e+002  2.932e+001  3.317e+001
 2.826e+002  2.932e+001  3.523e+001
 2.757e+002  0.000e+000  0.000e+000
 2.761e+002  3.998e+000  0.000e+000
 2.765e+002  7.988e+000  0.000e+000
 2.768e+002  1.197e+001  1.875e-004
 2.772e+002  1.594e+001  5.576e-002
 2.777e+002  1.984e+001  6.143e-001
 2.782e+002  2.332e+001  2.375e+000
 2.787e+002  2.591e+001  5.325e+000
 2.791e+002  2.734e+001  9.015e+000
 2.793e+002  2.827e+001  1.286e+001
 2.795e+002  2.889e+001  1.677e+001
 2.796e+002  2.911e+001  1.881e+001
 2.797e+002  2.927e+001  2.085e+001
 2.797e+002  2.932e+001  2.290e+001
 2.795e+002  2.933e+001  2.496e+001
 2.793e+002  2.933e+001  2.701e+001
 2.792e+002  2.932e+001  2.907e+001
 2.790e+002  2.932e+001  3.112e+001
 2.789e+002  2.932e+001  3.318e+001
 2.787e+002  2.932e+001  3.523e+001
 2.717e+002  0.000e+000  0.000e+000
 2.721e+002  4.040e+000  0.000e+000
 2.725e+002  8.072e+000  0.000e+000
 2.728e+002  1.210e+001  1.019e-004
 2.732e+002  1.611e+001  3.692e-002
 2.738e+002  2.006e+001  5.136e-001
 2.743e+002  2.363e+001  2.190e+000
 2.748e+002  2.626e+001  5.151e+000
 2.751e+002  2.766e+001  8.899e+000
 2.754e+002  2.853e+001  1.280e+001
 2.755e+002  2.904e+001  1.677e+001
 2.757e+002  2.918e+001  1.881e+001
 2.757e+002  2.929e+001  2.086e+001
 2.757e+002  2.932e+001  2.291e+001
 2.756e+002  2.933e+001  2.496e+001
 2.754e+002  2.932e+001  2.702e+001
 2.752e+002  2.932e+001  2.907e+001
 2.751e+002  2.932e+001  3.112e+001
 2.749e+002  2.932e+001  3.318e+001
 2.747e+002  2.932e+001  3.523e+001
 2.677e+002  0.000e+000  0.000e+000
 2.682e+002  4.083e+000  0.000e+000
 2.686e+002  8.156e+000  0.000e+000
 2.689e+002  1.223e+001  1.632e-005
 2.693e+002  1.628e+001  1.808e-002
 2.698e+002  2.029e+001  4.130e-001
 2.703e+002  2.395e+001  2.006e+000
 2.708e+002  2.662e+001  4.978e+000
 2.712e+002  2.798e+001  8.783e+000
 2.714e+002  2.879e+001  1.275e+001
 2.715e+002  2.919e+001  1.677e+001
 2.717e+002  2.926e+001  1.882e+001
 2.718e+002  2.931e+001  2.086e+001
 2.717e+002  2.932e+001  2.292e+001
 2.716e+002  2.932e+001  2.497e+001
 2.714e+002  2.932e+001  2.702e+001
 2.713e+002  2.932e+001  2.907e+001
 2.711e+002  2.932e+001  3.113e+001
 2.710e+002  2.932e+001  3.318e+001
 2.708e+002  2.932e+001  3.523e+001
 2.637e+002  0.000e+000  0.000e+000
 2.642e+002  4.106e+000  0.000e+000
 2.646e+002  8.208e+000  0.000e+000
 2.649e+002  1.231e+001  0.000e+000
 2.653e+002  1.640e+001  1.069e-002
 2.658e+002  2.046e+001  3.433e-001
 2.664e+002  2.420e+001  1.858e+000
 2.668e+002  2.692e+001  4.830e+000
 2.672e+002  2.826e+001  8.679e+000
 2.674e+002  2.901e+001  1.269e+001
 2.675e+002  2.932e+001  1.677e+001
 2.677e+002  2.932e+001  1.882e+001
 2.678e+002  2.932e+001  2.087e+001
 2.677e+002  2.933e+001  2.292e+001
 2.676e+002  2.932e+001  2.497e+001
 2.674e+002  2.932e+001  2.703e+001
 2.673e+002  2.932e+001  2.908e+001
 2.671e+002  2.932e+001  3.113e+001
 2.670e+002  2.932e+001  3.318e+001
 2.668e+002  2.932e+001  3.523e+001
 2.598e+002  0.000e+000  0.000e+000
 2.602e+002  4.130e+000  0.000e+000
 2.607e+002  8.255e+000  0.000e+000
 2.609e+002  1.238e+001  0.000e+000
 2.613e+002  1.649e+001  8.103e-003
 2.619e+002  2.058e+001  2.973e-001
 2.624e+002  2.436e+001  1.757e+000
 2.629e+002  2.711e+001  4.736e+000
 2.632e+002  2.842e+001  8.617e+000
 2.634e+002  2.908e+001  1.267e+001
 2.635e+002  2.932e+001  1.677e+001
 2.637e+002  2.932e+001  1.882e+001
 2.638e+002  2.933e+001  2.087e+001
 2.638e+002  2.933e+001  2.292e+001
 2.636e+002  2.933e+001  2.497e+001
 2.635e+002  2.932e+001  2.703e+001
 2.633e+002  2.932e+001  2.908e+001
 2.632e+002  2.932e+001  3.113e+001
 2.631e+002  2.932e+001  3.318e+001
 2.629e+002  2.932e+001  3.523e+001
 2.558e+002  0.000e+000  0.000e+000
 2.563e+002  4.154e+000  0.000e+000
 2.567e+002  8.302e+000  0.000e+000
 2.570e+002  1.245e+001  0.000e+000
 2.574e+002  1.659e+001  5.512e-003
 2.579e+002  2.070e+001  2.512e-001
 2.584e+002  2.453e+001  1.656e+000
 2.589e+002  2.729e+001  4.641e+000
 2.592e+002  2.858e+001  8.554e+000
 2.594e+002  2.914e+001  1.264e+001
 2.595e+002  2.933e+001  1.677e+001
 2.597e+002  2.933e+001  1.882e+001
 2.598e+002  2.933e+001  2.087e+001
 2.598e+002  2.933e+001  2.292e+001
 2.597e+002  2.933e+001  2.497e+001
 2.595e+002  2.933e+001  2.703e+001
 2.594e+002  2.932e+001  2.908e+001
 2.592e+002  2.932e+001  3.113e+001
 2.591e+002  2.932e+001  3.318e+001
 2.589e+002  2.932e+001  3.523e+001
 2.518e+002  0.000e+000  0.000e+000
 2.523e+002  4.177e+000  0.000e+000
 2.528e+002  8.349e+000  0.000e+000
 2.530e+002  1.252e+001  0.000e+000
 2.534e+002  1.668e+001  2.920e-003
 2.539e+002  2.083e+001  2.051e-001
 2.544e+002  2.470e+001  1.555e+000
 2.549e+002  2.748e+001  4.547e+000
 2.553e+002  2.874e+001  8.491e+000
 2.554e+002  2.921e+001  1.261e+001
 2.555e+002  2.933e+001  1.677e+001
 2.557e+002  2.933e+001  1.882e+001
 2.558e+002  2.933e+001  2.087e+001
 2.558e+002  2.933e+001  2.292e+001
 2.557e+002  2.933e+001  2.497e+001
 2.555e+002  2.933e+001  2.703e+001
 2.554e+002  2.933e+001  2.908e+001
 2.553e+002  2.933e+001  3.113e+001
 2.551e+002  2.933e+001  3.318e+001
 2.549e+002  2.933e+001  3.523e+001
 2.478e+002  0.000e+000  0.000e+000
 2.483e+002  4.200e+000  0.000e+000
 2.488e+002  8.396e+000  0.000e+000
 2.491e+002  1.259e+001  0.000e+000
 2.495e+002  1.678e+001  3.290e-004
 2.500e+002  2.095e+001  1.590e-001
 2.505e+002  2.487e+001  1.454e+000
 2.509e+002  2.767e+001  4.453e+000
 2.513e+002  2.890e+001  8.429e+000
 2.514e+002  2.928e+001  1.259e+001
 2.515e+002  2.933e+001  1.677e+001
 2.517e+002  2.933e+001  1.882e+001
 2.518e+002  2.933e+001  2.087e+001
 2.518e+002  2.933e+001  2.292e+001
 2.517e+002  2.933e+001  2.497e+001
 2.516e+002  2.933e+001  2.703e+001
 2.514e+002  2.933e+001  2.908e+001
 2.513e+002  2.933e+001  3.113e+001
 2.512e+002  2.933e+001  3.318e+001
 2.510e+002  2.933e+001  3.523e+001
 2.439e+002  0.000e+000  0.000e+000
 2.444e+002  4.217e+000  0.000e+000
 2.448e+002  8.430e+000  0.000e+000
 2.451e+002  1.264e+001  0.000e+000
 2.455e+002  1.685e+001  0.000e+000
 2.460e+002  2.105e+001  1.283e-001
 2.465e+002  2.501e+001  1.361e+000
 2.469e+002  2.783e+001  4.372e+000
 2.473e+002  2.901e+001  8.376e+000
 2.475e+002  2.932e+001  1.256e+001
 2.475e+002  2.933e+001  1.677e+001
 2.477e+002  2.933e+001  1.882e+001
 2.479e+002  2.933e+001  2.087e+001
 2.479e+002  2.933e+001  2.292e+001
 2.477e+002  2.933e+001  2.497e+001
 2.476e+002  2.933e+001  2.703e+001
 2.475e+002  2.933e+001  2.908e+001
 2.474e+002  2.933e+001  3.113e+001
 2.472e+002  2.933e+001  3.318e+001
 2.470e+002  2.933e+001  3.523e+001
 2.399e+002  0.000e+000  0.000e+000
 2.404e+002  4.234e+000  0.000e+000
 2.409e+002  8.464e+000  0.000e+000
 2.411e+002  1.269e+001  0.000e+000
 2.415e+002  1.692e+001  0.000e+000
 2.420e+002  2.113e+001  1.030e-001
 2.425e+002  2.513e+001  1.272e+000
 2.430e+002  2.795e+001  4.305e+000
 2.433e+002  2.907e+001  8.338e+000
 2.435e+002  2.932e+001  1.255e+001
 2.435e+002  2.933e+001  1.677e+001
 2.438e+002  2.933e+001  1.882e+001
 2.439e+002  2.933e+001  2.087e+001
 2.439e+002  2.933e+001  2.292e+001
 2.438e+002  2.933e+001  2.497e+001
 2.436e+002  2.933e+001  2.703e+001
 2.435e+002  2.933e+001  2.908e+001
 2.434e+002  2.933e+001  3.113e+001
 2.433e+002  2.933e+001  3.318e+001
 2.431e+002  2.933e+001  3.523e+001
 2.359e+002  0.000e+000  0.000e+000
 2.364e+002  4.251e+000  0.000e+000
 2.369e+002  8.498e+000  0.000e+000
 2.372e+002  1.274e+001  0.000e+000
 2.376e+002  1.699e+001  0.000e+000
 2.381e+002  2.122e+001  7.763e-002
 2.386e+002  2.525e+001  1.184e+000
 2.390e+002  2.807e+001  4.238e+000
 2.393e+002  2.913e+001  8.300e+000
 2.395e+002  2.932e+001  1.253e+001
 2.395e+002  2.933e+001  1.677e+001
 2.398e+002  2.933e+001  1.882e+001
 2.399e+002  2.933e+001  2.087e+001
 2.399e+002  2.933e+001  2.292e+001
 2.398e+002  2.933e+001  2.497e+001
 2.397e+002  2.933e+001  2.703e+001
 2.396e+002  2.933e+001  2.908e+001
 2.394e+002  2.933e+001  3.113e+001
 2.393e+002  2.933e+001  3.318e+001
 2.391e+002  2.933e+001  3.523e+001
 2.319e+002  0.000e+000  0.000e+000
 2.325e+002  4.268e+000  0.000e+000
 2.330e+002  8.532e+000  0.000e+000
 2.332e+002  1.279e+001  0.000e+000
 2.336e+002  1.705e+001  0.000e+000
 2.341e+002  2.130e+001  5.229e-002
 2.346e+002  2.538e+001  1.096e+000
 2.350e+002  2.819e+001  4.170e+000
 2.353e+002  2.919e+001  8.261e+000
 2.355e+002  2.933e+001  1.251e+001
 2.355e+002  2.933e+001  1.677e+001
 2.358e+002  2.933e+001  1.882e+001
 2.359e+002  2.933e+001  2.087e+001
 2.359e+002  2.933e+001  2.292e+001
 2.358e+002  2.933e+001  2.497e+001
 2.357e+002  2.933e+001  2.703e+001
 2.356e+002  2.933e+001  2.908e+001
 2.355e+002  2.933e+001  3.113e+001
 2.354e+002  2.933e+001  3.318e+001
 2.352e+002  2.933e+001  3.523e+001
 2.280e+002  0.000e+000  0.000e+000
 2.285e+002  4.281e+000  0.000e+000
 2.290e+002  8.561e+000  0.000e+000
 2.293e+002  1.284e+001  0.000e+000
 2.296e+002  1.712e+001  0.000e+000
 2.301e+002  2.139e+001  2.695e-002
 2.306e+002  2.550e+001  1.007e+000
 2.310e+002  2.831e+001  4.103e+000
 2.314e+002  2.924e+001  8.223e+000
 2.315e+002  2.933e+001  1.249e+001