TITLE = "NODEELEMENT"
VARIABLES = "X", "Y", "Z"
ZONE N=     400, E=     361, F=FEPOINT, ET=QUADRILATERAL
 8.000e+002  0.000e+000  1.677e+001
 7.515e+002  3.939e+001  1.677e+001
 6.887e+002  5.800e+001  1.677e+001
 6.245e+002  7.068e+001  1.677e+001
 5.596e+002  8.005e+001  1.677e+001
 4.945e+002  8.712e+001  1.677e+001
 4.292e+002  9.241e+001  1.677e+001
 3.638e+002  9.621e+001  1.677e+001
 2.983e+002  9.865e+001  1.677e+001
 2.328e+002  9.985e+001  1.677e+001
 1.673e+002  9.985e+001  1.677e+001
 1.018e+002  9.865e+001  1.677e+001
 3.629e+001  9.621e+001  1.677e+001
-2.912e+001  9.242e+001  1.677e+001
-9.443e+001  8.713e+001  1.677e+001
-1.596e+002  8.006e+001  1.677e+001
-2.244e+002  7.069e+001  1.677e+001
-2.887e+002  5.801e+001  1.677e+001
-3.515e+002  3.942e+001  1.677e+001
-4.000e+002  6.540e-002  1.677e+001
 7.783e+002  0.000e+000  1.677e+001
 7.312e+002  3.767e+001  1.677e+001
 6.707e+002  5.574e+001  1.677e+001
 6.087e+002  6.809e+001  1.677e+001
 5.462e+002  7.722e+001  1.677e+001
 4.833e+002  8.406e+001  1.677e+001
 4.203e+002  8.910e+001  1.677e+001
 3.572e+002  9.269e+001  1.677e+001
 2.940e+002  9.500e+001  1.677e+001
 2.308e+002  9.614e+001  1.677e+001
 1.676e+002  9.614e+001  1.677e+001
 1.044e+002  9.500e+001  1.677e+001
 4.118e+001  9.269e+001  1.677e+001
-2.193e+001  8.910e+001  1.677e+001
-8.495e+001  8.408e+001  1.677e+001
-1.478e+002  7.737e+001  1.677e+001
-2.104e+002  6.846e+001  1.677e+001
-2.724e+002  5.630e+001  1.677e+001
-3.330e+002  3.827e+001  1.677e+001
-3.793e+002  6.431e-002  1.677e+001
 7.565e+002  0.000e+000  1.677e+001
 7.109e+002  3.595e+001  1.677e+001
 6.527e+002  5.347e+001  1.677e+001
 5.930e+002  6.551e+001  1.677e+001
 5.327e+002  7.440e+001  1.677e+001
 4.721e+002  8.100e+001  1.677e+001
 4.114e+002  8.578e+001  1.677e+001
 3.506e+002  8.917e+001  1.677e+001
 2.897e+002  9.135e+001  1.677e+001
 2.288e+002  9.243e+001  1.677e+001
 1.679e+002  9.243e+001  1.677e+001
 1.070e+002  9.135e+001  1.677e+001
 4.608e+001  8.917e+001  1.677e+001
-1.474e+001  8.578e+001  1.677e+001
-7.547e+001  8.104e+001  1.677e+001
-1.361e+002  7.469e+001  1.677e+001
-1.964e+002  6.623e+001  1.677e+001
-2.562e+002  5.458e+001  1.677e+001
-3.145e+002  3.713e+001  1.677e+001
-3.585e+002  6.322e-002  1.677e+001
 7.348e+002  0.000e+000  1.677e+001
 6.907e+002  3.423e+001  1.677e+001
 6.346e+002  5.121e+001  1.677e+001
 5.772e+002  6.292e+001  1.677e+001
 5.192e+002  7.158e+001  1.677e+001
 4.610e+002  7.794e+001  1.677e+001
 4.025e+002  8.246e+001  1.677e+001
 3.440e+002  8.565e+001  1.677e+001
 2.854e+002  8.770e+001  1.677e+001
 2.268e+002  8.872e+001  1.677e+001
 1.682e+002  8.872e+001  1.677e+001
 1.096e+002  8.771e+001  1.677e+001
 5.098e+001  8.565e+001  1.677e+001
-7.551e+000  8.246e+001  1.677e+001
-6.599e+001  7.800e+001  1.677e+001
-1.243e+002  7.201e+001  1.677e+001
-1.823e+002  6.399e+001  1.677e+001
-2.399e+002  5.287e+001  1.677e+001
-2.960e+002  3.599e+001  1.677e+001
-3.378e+002  6.213e-002  1.677e+001
 7.130e+002  0.000e+000  1.677e+001
 6.704e+002  3.250e+001  1.677e+001
 6.166e+002  4.895e+001  1.677e+001
 5.614e+002  6.033e+001  1.677e+001
 5.058e+002  6.875e+001  1.677e+001
 4.498e+002  7.487e+001  1.677e+001
 3.936e+002  7.914e+001  1.677e+001
 3.374e+002  8.213e+001  1.677e+001
 2.811e+002  8.406e+001  1.677e+001
 2.248e+002  8.501e+001  1.677e+001
 1.685e+002  8.501e+001  1.677e+001
 1.122e+002  8.406e+001  1.677e+001
 5.587e+001  8.213e+001  1.677e+001
-3.604e-001  7.914e+001  1.677e+001
-5.651e+001  7.495e+001  1.677e+001
-1.125e+002  6.932e+001  1.677e+001
-1.683e+002  6.176e+001  1.677e+001
-2.236e+002  5.115e+001  1.677e+001
-2.775e+002  3.484e+001  1.677e+001
-3.170e+002  6.103e-002  1.677e+001
 6.913e+002  0.000e+000  1.677e+001
 6.501e+002  3.078e+001  1.677e+001
 5.985e+002  4.669e+001  1.677e+001
 5.457e+002  5.774e+001  1.677e+001
 4.923e+002  6.593e+001  1.677e+001
 4.386e+002  7.181e+001  1.677e+001
 3.847e+002  7.582e+001  1.677e+001
 3.308e+002  7.861e+001  1.677e+001
 2.768e+002  8.041e+001  1.677e+001
 2.228e+002  8.129e+001  1.677e+001
 1.688e+002  8.129e+001  1.677e+001
 1.148e+002  8.041e+001  1.677e+001
 6.077e+001  7.861e+001  1.677e+001
 6.831e+000  7.582e+001  1.677e+001
-4.703e+001  7.191e+001  1.677e+001
-1.008e+002  6.664e+001  1.677e+001
-1.543e+002  5.953e+001  1.677e+001
-2.074e+002  4.943e+001  1.677e+001
-2.590e+002  3.370e+001  1.677e+001
-2.963e+002  5.994e-002  1.677e+001
 6.695e+002  0.000e+000  1.677e+001
 6.298e+002  2.906e+001  1.677e+001
 5.805e+002  4.443e+001  1.677e+001
 5.299e+002  5.516e+001  1.677e+001
 4.788e+002  6.310e+001  1.677e+001
 4.274e+002  6.875e+001  1.677e+001
 3.758e+002  7.250e+001  1.677e+001
 3.242e+002  7.509e+001  1.677e+001
 2.725e+002  7.676e+001  1.677e+001
 2.208e+002  7.758e+001  1.677e+001
 1.691e+002  7.758e+001  1.677e+001
 1.174e+002  7.676e+001  1.677e+001
 6.567e+001  7.509e+001  1.677e+001
 1.402e+001  7.250e+001  1.677e+001
-3.755e+001  6.887e+001  1.677e+001
-8.902e+001  6.395e+001  1.677e+001
-1.402e+002  5.730e+001  1.677e+001
-1.911e+002  4.772e+001  1.677e+001
-2.404e+002  3.256e+001  1.677e+001
-2.756e+002  5.885e-002  1.677e+001
 6.478e+002  0.000e+000  1.677e+001
 6.095e+002  2.734e+001  1.677e+001
 5.624e+002  4.217e+001  1.677e+001
 5.142e+002  5.257e+001  1.677e+001
 4.654e+002  6.028e+001  1.677e+001
 4.162e+002  6.569e+001  1.677e+001
 3.670e+002  6.918e+001  1.677e+001
 3.176e+002  7.157e+001  1.677e+001
 2.682e+002  7.311e+001  1.677e+001
 2.188e+002  7.387e+001  1.677e+001
 1.694e+002  7.387e+001  1.677e+001
 1.200e+002  7.311e+001  1.677e+001
 7.057e+001  7.157e+001  1.677e+001
 2.121e+001  6.918e+001  1.677e+001
-2.807e+001  6.582e+001  1.677e+001
-7.726e+001  6.127e+001  1.677e+001
-1.262e+002  5.506e+001  1.677e+001
-1.749e+002  4.600e+001  1.677e+001
-2.219e+002  3.141e+001  1.677e+001
-2.548e+002  5.776e-002  1.677e+001
 6.260e+002  0.000e+000  1.677e+001
 5.892e+002  2.561e+001  1.677e+001
 5.444e+002  3.990e+001  1.677e+001
 4.984e+002  4.998e+001  1.677e+001
 4.519e+002  5.745e+001  1.677e+001
 4.051e+002  6.263e+001  1.677e+001
 3.581e+002  6.586e+001  1.677e+001
 3.110e+002  6.805e+001  1.677e+001
 2.639e+002  6.946e+001  1.677e+001
 2.168e+002  7.016e+001  1.677e+001
 1.697e+002  7.016e+001  1.677e+001
 1.226e+002  6.946e+001  1.677e+001
 7.546e+001  6.805e+001  1.677e+001
 2.840e+001  6.585e+001  1.677e+001
-1.859e+001  6.278e+001  1.677e+001
-6.550e+001  5.859e+001  1.677e+001
-1.122e+002  5.283e+001  1.677e+001
-1.586e+002  4.429e+001  1.677e+001
-2.034e+002  3.027e+001  1.677e+001
-2.341e+002  5.667e-002  1.677e+001
 6.043e+002  0.000e+000  1.677e+001
 5.689e+002  2.389e+001  1.677e+001
 5.263e+002  3.764e+001  1.677e+001
 4.826e+002  4.739e+001  1.677e+001
 4.384e+002  5.463e+001  1.677e+001
 3.939e+002  5.956e+001  1.677e+001
 3.492e+002  6.254e+001  1.677e+001
 3.044e+002  6.453e+001  1.677e+001
 2.596e+002  6.581e+001  1.677e+001
 2.148e+002  6.645e+001  1.677e+001
 1.700e+002  6.645e+001  1.677e+001
 1.252e+002  6.581e+001  1.677e+001
 8.036e+001  6.453e+001  1.677e+001
 3.559e+001  6.253e+001  1.677e+001
-9.111e+000  5.974e+001  1.677e+001
-5.375e+001  5.590e+001  1.677e+001
-9.815e+001  5.060e+001  1.677e+001
-1.423e+002  4.257e+001  1.677e+001
-1.849e+002  2.913e+001  1.677e+001
-2.134e+002  5.557e-002  1.677e+001
 5.825e+002  0.000e+000  1.677e+001
 5.486e+002  2.217e+001  1.677e+001
 5.083e+002  3.538e+001  1.677e+001
 4.669e+002  4.480e+001  1.677e+001
 4.250e+002  5.180e+001  1.677e+001
 3.827e+002  5.650e+001  1.677e+001
 3.403e+002  5.922e+001  1.677e+001
 2.978e+002  6.101e+001  1.677e+001
 2.553e+002  6.217e+001  1.677e+001
 2.128e+002  6.274e+001  1.677e+001
 1.703e+002  6.274e+001  1.677e+001
 1.278e+002  6.217e+001  1.677e+001
 8.526e+001  6.101e+001  1.677e+001
 4.279e+001  5.921e+001  1.677e+001
 3.690e-001  5.669e+001  1.677e+001
-4.199e+001  5.322e+001  1.677e+001
-8.413e+001  4.837e+001  1.677e+001
-1.261e+002  4.086e+001  1.677e+001
-1.664e+002  2.798e+001  1.677e+001
-1.926e+002  5.448e-002  1.677e+001
 5.608e+002  0.000e+000  1.677e+001
 5.283e+002  2.044e+001  1.677e+001
 4.902e+002  3.312e+001  1.677e+001
 4.511e+002  4.222e+001  1.677e+001
 4.115e+002  4.898e+001  1.677e+001
 3.715e+002  5.344e+001  1.677e+001
 3.314e+002  5.590e+001  1.677e+001
 2.912e+002  5.749e+001  1.677e+001
 2.510e+002  5.852e+001  1.677e+001
 2.108e+002  5.902e+001  1.677e+001
 1.706e+002  5.902e+001  1.677e+001
 1.304e+002  5.852e+001  1.677e+001
 9.015e+001  5.749e+001  1.677e+001
 4.998e+001  5.589e+001  1.677e+001
 9.849e+000  5.365e+001  1.677e+001
-3.023e+001  5.054e+001  1.677e+001
-7.010e+001  4.613e+001  1.677e+001
-1.098e+002  3.914e+001  1.677e+001
-1.479e+002  2.684e+001  1.677e+001
-1.719e+002  5.339e-002  1.677e+001
 5.390e+002  0.000e+000  1.677e+001
 5.081e+002  1.872e+001  1.677e+001
 4.722e+002  3.086e+001  1.677e+001
 4.354e+002  3.963e+001  1.677e+001
 3.980e+002  4.616e+001  1.677e+001
 3.603e+002  5.038e+001  1.677e+001
 3.225e+002  5.258e+001  1.677e+001
 2.846e+002  5.397e+001  1.677e+001
 2.467e+002  5.487e+001  1.677e+001
 2.088e+002  5.531e+001  1.677e+001
 1.709e+002  5.531e+001  1.677e+001
 1.330e+002  5.487e+001  1.677e+001
 9.505e+001  5.397e+001  1.677e+001
 5.717e+001  5.257e+001  1.677e+001
 1.933e+001  5.061e+001  1.677e+001
-1.847e+001  4.785e+001  1.677e+001
-5.607e+001  4.390e+001  1.677e+001
-9.356e+001  3.743e+001  1.677e+001
-1.294e+002  2.570e+001  1.677e+001
-1.511e+002  5.230e-002  1.677e+001
 5.173e+002  0.000e+000  1.677e+001
 4.878e+002  1.700e+001  1.677e+001
 4.541e+002  2.859e+001  1.677e+001
 4.196e+002  3.704e+001  1.677e+001
 3.846e+002  4.333e+001  1.677e+001
 3.492e+002  4.732e+001  1.677e+001
 3.136e+002  4.927e+001  1.677e+001
 2.780e+002  5.045e+001  1.677e+001
 2.424e+002  5.122e+001  1.677e+001
 2.068e+002  5.160e+001  1.677e+001
 1.712e+002  5.160e+001  1.677e+001
 1.356e+002  5.122e+001  1.677e+001
 9.995e+001  5.045e+001  1.677e+001
 6.436e+001  4.925e+001  1.677e+001
 2.881e+001  4.756e+001  1.677e+001
-6.715e+000  4.517e+001  1.677e+001
-4.204e+001  4.167e+001  1.677e+001
-7.730e+001  3.571e+001  1.677e+001
-1.109e+002  2.455e+001  1.677e+001
-1.304e+002  5.121e-002  1.677e+001
 4.955e+002  0.000e+000  1.677e+001
 4.675e+002  1.528e+001  1.677e+001
 4.361e+002  2.633e+001  1.677e+001
 4.038e+002  3.445e+001  1.677e+001
 3.711e+002  4.051e+001  1.677e+001
 3.380e+002  4.426e+001  1.677e+001
 3.047e+002  4.595e+001  1.677e+001
 2.714e+002  4.693e+001  1.677e+001
 2.381e+002  4.757e+001  1.677e+001
 2.048e+002  4.789e+001  1.677e+001
 1.715e+002  4.789e+001  1.677e+001
 1.382e+002  4.757e+001  1.677e+001
 1.048e+002  4.693e+001  1.677e+001
 7.155e+001  4.593e+001  1.677e+001
 3.829e+001  4.452e+001  1.677e+001
 5.043e+000  4.248e+001  1.677e+001
-2.801e+001  3.944e+001  1.677e+001
-6.103e+001  3.399e+001  1.677e+001
-9.243e+001  2.341e+001  1.677e+001
-1.097e+002  5.011e-002  1.677e+001
 4.738e+002  0.000e+000  1.677e+001
 4.472e+002  1.355e+001  1.677e+001
 4.181e+002  2.407e+001  1.677e+001
 3.881e+002  3.187e+001  1.677e+001
 3.576e+002  3.768e+001  1.677e+001
 3.268e+002  4.119e+001  1.677e+001
 2.958e+002  4.263e+001  1.677e+001
 2.648e+002  4.341e+001  1.677e+001
 2.338e+002  4.392e+001  1.677e+001
 2.028e+002  4.418e+001  1.677e+001
 1.718e+002  4.418e+001  1.677e+001
 1.408e+002  4.392e+001  1.677e+001
 1.097e+002  4.341e+001  1.677e+001
 7.874e+001  4.261e+001  1.677e+001
 4.777e+001  4.148e+001  1.677e+001
 1.680e+001  3.980e+001  1.677e+001
-1.398e+001  3.720e+001  1.677e+001
-4.477e+001  3.228e+001  1.677e+001
-7.393e+001  2.227e+001  1.677e+001
-8.893e+001  4.902e-002  1.677e+001
 4.520e+002  0.000e+000  1.677e+001
 4.269e+002  1.183e+001  1.677e+001
 4.000e+002  2.181e+001  1.677e+001
 3.723e+002  2.928e+001  1.677e+001
 3.442e+002  3.486e+001  1.677e+001
 3.156e+002  3.813e+001  1.677e+001
 2.869e+002  3.931e+001  1.677e+001
 2.582e+002  3.989e+001  1.677e+001
 2.295e+002  4.028e+001  1.677e+001
 2.008e+002  4.047e+001  1.677e+001
 1.721e+002  4.047e+001  1.677e+001
 1.434e+002  4.028e+001  1.677e+001
 1.146e+002  3.989e+001  1.677e+001
 8.593e+001  3.929e+001  1.677e+001
 5.725e+001  3.843e+001  1.677e+001
 2.856e+001  3.712e+001  1.677e+001
 4.633e-002  3.497e+001  1.677e+001
-2.851e+001  3.056e+001  1.677e+001
-5.543e+001  2.112e+001  1.677e+001
-6.819e+001  4.793e-002  1.677e+001
 4.303e+002  0.000e+000  1.677e+001
 4.066e+002  1.011e+001  1.677e+001
 3.820e+002  1.955e+001  1.677e+001
 3.566e+002  2.669e+001  1.677e+001
 3.307e+002  3.203e+001  1.677e+001
 3.045e+002  3.507e+001  1.677e+001
 2.781e+002  3.599e+001  1.677e+001
 2.516e+002  3.636e+001  1.677e+001
 2.252e+002  3.663e+001  1.677e+001
 1.988e+002  3.675e+001  1.677e+001
 1.724e+002  3.675e+001  1.677e+001
 1.460e+002  3.663e+001  1.677e+001
 1.195e+002  3.637e+001  1.677e+001
 9.312e+001  3.597e+001  1.677e+001
 6.673e+001  3.539e+001  1.677e+001
 4.032e+001  3.443e+001  1.677e+001
 1.407e+001  3.274e+001  1.677e+001
-1.225e+001  2.885e+001  1.677e+001
-3.693e+001  1.998e+001  1.677e+001
-4.746e+001  4.684e-002  1.677e+001
 4.085e+002  0.000e+000  1.677e+001
 3.863e+002  8.386e+000  1.677e+001
 3.639e+002  1.729e+001  1.677e+001
 3.408e+002  2.410e+001  1.677e+001
 3.172e+002  2.921e+001  1.677e+001
 2.933e+002  3.201e+001  1.677e+001
 2.692e+002  3.267e+001  1.677e+001
 2.450e+002  3.284e+001  1.677e+001
 2.209e+002  3.298e+001  1.677e+001
 1.968e+002  3.304e+001  1.677e+001
 1.727e+002  3.304e+001  1.677e+001
 1.486e+002  3.298e+001  1.677e+001
 1.244e+002  3.285e+001  1.677e+001
 1.003e+002  3.265e+001  1.677e+001
 7.621e+001  3.235e+001  1.677e+001
 5.207e+001  3.175e+001  1.677e+001
 2.810e+001  3.051e+001  1.677e+001
 4.008e+000  2.713e+001  1.677e+001
-1.843e+001  1.884e+001  1.677e+001
-2.672e+001  4.575e-002  1.677e+001
 3.868e+002  0.000e+000  1.677e+001
 3.660e+002  6.663e+000  1.677e+001
 3.459e+002  1.502e+001  1.677e+001
 3.250e+002  2.151e+001  1.677e+001
 3.038e+002  2.639e+001  1.677e+001
 2.821e+002  2.895e+001  1.677e+001
 2.603e+002  2.935e+001  1.677e+001
 2.385e+002  2.932e+001  1.677e+001
 2.166e+002  2.933e+001  1.677e+001
 1.948e+002  2.933e+001  1.677e+001
 1.730e+002  2.933e+001  1.677e+001
 1.512e+002  2.933e+001  1.677e+001
 1.293e+002  2.933e+001  1.677e+001
 1.075e+002  2.933e+001  1.677e+001
 8.569e+001  2.930e+001  1.677e+001
 6.383e+001  2.907e+001  1.677e+001
 4.213e+001  2.827e+001  1.677e+001
 2.027e+001  2.542e+001  1.677e+001
 7.367e-002  1.769e+001  1.677e+001
-5.981e+000  4.465e-002  1.677e+001
       1        2       22       21
       2        3       23       22
       3        4       24       23
       4        5       25       24
       5        6       26       25
       6        7       27       26
       7        8       28       27
       8        9       29       28
       9       10       30       29
      10       11       31       30
      11       12       32       31
      12       13       33       32
      13       14       34       33
      14       15       35       34
      15       16       36       35
      16       17       37       36
      17       18       38       37
      18       19       39       38
      19       20       40       39
      21       22       42       41
      22       23       43       42
      23       24       44       43
      24       25       45       44
      25       26       46       45
      26       27       47       46
      27       28       48       47
      28       29       49       48
      29       30       50       49
      30       31       51       50
      31       32       52       51
      32       33       53       52
      33       34       54       53
      34       35       55       54
      35       36       56       55
      36       37       57       56
      37       38       58       57
      38       39       59       58
      39       40       60       59
      41       42       62       61
      42       43       63       62
      43       44       64       63
      44       45       65       64
      45       46       66       65
      46       47       67       66
      47       48       68       67
      48       49       69       68
      49       50       70       69
      50       51       71       70
      51       52       72       71
      52       53       73       72
      53       54       74       73
      54       55       75       74
      55       56       76       75
      56       57       77       76
      57       58       78       77
      58       59       79       78
      59       60       80       79
      61       62       82       81
      62       63       83       82
      63       64       84       83
      64       65       85       84
      65       66       86       85
      66       67       87       86
      67       68       88       87
      68       69       89       88
      69       70       90       89
      70       71       91       90
      71       72       92       91
      72       73       93       92
      73       74       94       93
      74       75       95       94
      75       76       96       95
      76       77       97       96
      77       78       98       97
      78       79       99       98
      79       80      100       99
      81       82      102      101
      82       83      103      102
      83       84      104      103
      84       85      105      104
      85       86      106      105
      86       87      107      106
      87       88      108      107
      88       89      109      108
      89       90      110      109
      90       91      111      110
      91       92      112      111
      92       93      113      112
      93       94      114      113
      94       95      115      114
      95       96      116      115
      96       97      117      116
      97       98      118      117
      98       99      119      118
      99      100      120      119
     101      102      122      121
     102      103      123      122
     103      104      124      123
     104      105      125      124
     105      106      126      125
     106      107      127      126
     107      108      128      127
     108      109      129      128
     109      110      130      129
     110      111      131      130
     111      112      132      131
     112      113      133      132
     113      114      134      133
     114      115      135      134
     115      116      136      135
     116      117      137      136
     117      118      138      137
     118      119      139      138
     119      120      140      139
     121      122      142      141
     122      123      143      142
     123      124      144      143
     124      125      145      144
     125      126      146      145
     126      127      147      146
     127      128      148      147
     128      129      149      148
     129      130      150      149
     130      131      151      150
     131      132      152      151
     132      133      153      152
     133      134      154      153
     134      135      155      154
     135      136      156      155
     136      137      157      156
     137      138      158      157
     138      139      159      158
     139      140      160      159
     141      142      162      161
     142      143      163      162
     143      144      164      163
     144      145      165      164
     145      146      166      165
     146      147      167      166
     147      148      168      167
     148      149      169      168
     149      150      170      169
     150      151      171      170
     151      152      172      171
     152      153      173      172
     153      154      174      173
     154      155      175      174
     155      156      176      175
     156      157      177      176
     157      158      178      177
     158      159      179      178
     159      160      180      179
     161      162      182      181
     162      163      183      182
     163      164      184      183
     164      165      185      184
     165      166      186      185
     166      167      187      186
     167      168      188      187
     168      169      189      188
     169      170      190      189
     170      171      191      190
     171      172      192      191
     172      173      193      192
     173      174      194      193
     174      175      195      194
     175      176      196      195
     176      177      197      196
     177      178      198      197
     178      179      199      198
     179      180      200      199
     181      182      202      201
     182      183      203      202
     183      184      204      203
     184      185      205      204
     185      186      206      205
     186      187      207      206
     187      188      208      207
     188      189      209      208
     189      190      210      209
     190      191      211      210
     191      192      212      211
     192      193      213      212
     193      194      214      213
     194      195      215      214
     195      196      216      215
     196      197      217      216
     197      198      218      217
     198      199      219      218
     199      200      220      219
     201      202      222      221
     202      203      223      222
     203      204      224      223
     204      205      225      224
     205      206      226      225
     206      207      227      226
     207      208      228      227
     208      209      229      228
     209      210      230      229
     210      211      231      230
     211      212      232      231
     212      213      233      232
     213      214      234      233
     214      215      235      234
     215      216      236      235
     216      217      237      236
     217      218      238      237
     218      219      239      238
     219      220      240      239
     221      222      242      241
     222      223      243      242
     223      224      244      243
     224      225      245      244
     225      226      246      245
     226      227      247      246
     227      228      248      247
     228      229      249      248
     229      230      250      249
     230      231      251      250
     231      232      252      251
     232      233      253      252
     233      234      254      253
     234      235      255      254
     235      236      256      255
     236      237      257      256
     237      238      258      257
     238      239      259      258
     239      240      260      259
     241      242      262      261
     242      243      263      262
     243      244      264      263
     244      245      265      264
     245      246      266      265
     246      247      267      266
     247      248      268      267
     248      249      269      268
     249      250      270      269
     250      251      271      270
     251      252      272      271
     252      253      273      272
     253      254      274      273
     254      255      275      274
     255      256      276      275
     256      257      277      276
     257      258      278      277
     258      259      279      278
     259      260      280      279
     261      262      282      281
     262      263      283      282
     263      264      284      283
     264      265      285      284
     265      266      286      285
     266      267      287      286
     267      268      288      287
     268      269      289      288
     269      270      290      289
     270      271      291      290
     271      272      292      291
     272      273      293      292
     273      274      294      293
     274      275      295      294
     275      276      296      295
     276      277      297      296
     277      278      298      297
     278      279      299      298
     279      280      300      299
     281      282      302      301
     282      283      303      302
     283      284      304      303
     284      285      305      304
     285      286      306      305
     286      287      307      306
     287      288      308      307
     288      289      309      308
     289      290      310      309
     290      291      311      310
     291      292      312      311
     292      293      313      312
     293      294      314      313
     294      295      315      314
     295      296      316      315
     296      297      317      316
     297      298      318      317
     298      299      319      318
     299      300      320      319
     301      302      322      321
     302      303      323      322
     303      304      324      323
     304      305      325      324
     305      306      326      325
     306      307      327      326
     307      308      328      327
     308      309      329      328
     309      310      330      329
     310      311      331      330
     311      312      332      331
     312      313      333      332
     313      314      334      333
     314      315      335      334
     315      316      336      335
     316      317      337      336
     317      318      338      337
     318      319      339      338
     319      320      340      339
     321      322      342      341
     322      323      343      342
     323      324      344      343
     324      325      345      344
     325      326      346      345
     326      327      347      346
     327      328      348      347
     328      329      349      348
     329      330      350      349
     330      331      351      350
     331      332      352      351
     332      333      353      352
     333      334      354      353
     334      335      355      354
     335      336      356      355
     336      337      357      356
     337      338      358      357
     338      339      359      358
     339      340      360      359
     341      342      362      361
     342      343      363      362
     343      344      364      363
     344      345      365      364
     345      346      366      365
     346      347      367      366
     347      348      368      367
     348      349      369      368
     349      350      370      369
     350      351      371      370
     351      352      372      371
     352      353      373      372
     353      354      374      373
     354      355      375      374
     355      356      376      375
     356      357      377      376
     357      358      378      377
     358      359      379      378
     359      360      380      379
     361      362      382      381
     362      363      383      382
     363      364      384      383
     364      365      385      384
     365      366      386      385
     366      367      387      386
     367      368      388      387
     368      369      389      388
     369      370      390      389
     370      371      391      390
     371      372      392      391
     372      373      393      392
     373      374      394      393
     374      375      395      394
     375      376      396      395
     376      377      397      396
     377      378      398      397
     378      379      399      398
     379      380      400      399
