TITLE = "NODEELEMENT"
VARIABLES = "X", "Y", "Z"
ZONE N=    2000, E=    1881, F=FEPOINT, ET=QUADRILATERAL
 2.887e+002  0.000e+000  1.677e+001
 2.867e+002  0.000e+000  1.677e+001
 2.847e+002  0.000e+000  1.677e+001
 2.827e+002  0.000e+000  1.677e+001
 2.808e+002  0.000e+000  1.677e+001
 2.788e+002  0.000e+000  1.677e+001
 2.768e+002  0.000e+000  1.677e+001
 2.748e+002  0.000e+000  1.677e+001
 2.728e+002  0.000e+000  1.677e+001
 2.708e+002  0.000e+000  1.677e+001
 2.689e+002  0.000e+000  1.677e+001
 2.669e+002  0.000e+000  1.677e+001
 2.649e+002  0.000e+000  1.677e+001
 2.629e+002  0.000e+000  1.677e+001
 2.609e+002  0.000e+000  1.677e+001
 2.589e+002  0.000e+000  1.677e+001
 2.569e+002  0.000e+000  1.677e+001
 2.550e+002  0.000e+000  1.677e+001
 2.530e+002  0.000e+000  1.677e+001
 2.510e+002  0.000e+000  1.677e+001
 2.490e+002  0.000e+000  1.677e+001
 2.470e+002  0.000e+000  1.677e+001
 2.450e+002  0.000e+000  1.677e+001
 2.431e+002  0.000e+000  1.677e+001
 2.411e+002  0.000e+000  1.677e+001
 2.391e+002  0.000e+000  1.677e+001
 2.371e+002  0.000e+000  1.677e+001
 2.351e+002  0.000e+000  1.677e+001
 2.331e+002  0.000e+000  1.677e+001
 2.312e+002  0.000e+000  1.677e+001
 2.292e+002  0.000e+000  1.677e+001
 2.272e+002  0.000e+000  1.677e+001
 2.252e+002  0.000e+000  1.677e+001
 2.232e+002  0.000e+000  1.677e+001
 2.212e+002  0.000e+000  1.677e+001
 2.192e+002  0.000e+000  1.677e+001
 2.173e+002  0.000e+000  1.677e+001
 2.153e+002  0.000e+000  1.677e+001
 2.133e+002  0.000e+000  1.677e+001
 2.113e+002  0.000e+000  1.677e+001
 2.093e+002  0.000e+000  1.677e+001
 2.073e+002  0.000e+000  1.677e+001
 2.054e+002  0.000e+000  1.677e+001
 2.034e+002  0.000e+000  1.677e+001
 2.014e+002  0.000e+000  1.677e+001
 1.994e+002  0.000e+000  1.677e+001
 1.974e+002  0.000e+000  1.677e+001
 1.954e+002  0.000e+000  1.677e+001
 1.934e+002  0.000e+000  1.677e+001
 1.915e+002  0.000e+000  1.677e+001
 1.895e+002  0.000e+000  1.677e+001
 1.875e+002  0.000e+000  1.677e+001
 1.855e+002  0.000e+000  1.677e+001
 1.835e+002  0.000e+000  1.677e+001
 1.815e+002  0.000e+000  1.677e+001
 1.796e+002  0.000e+000  1.677e+001
 1.776e+002  0.000e+000  1.677e+001
 1.756e+002  0.000e+000  1.677e+001
 1.736e+002  0.000e+000  1.677e+001
 1.716e+002  0.000e+000  1.677e+001
 1.696e+002  0.000e+000  1.677e+001
 1.677e+002  0.000e+000  1.677e+001
 1.657e+002  0.000e+000  1.677e+001
 1.637e+002  0.000e+000  1.677e+001
 1.617e+002  0.000e+000  1.677e+001
 1.597e+002  0.000e+000  1.677e+001
 1.577e+002  0.000e+000  1.677e+001
 1.557e+002  0.000e+000  1.677e+001
 1.538e+002  0.000e+000  1.677e+001
 1.518e+002  0.000e+000  1.677e+001
 1.498e+002  0.000e+000  1.677e+001
 1.478e+002  0.000e+000  1.677e+001
 1.458e+002  0.000e+000  1.677e+001
 1.438e+002  0.000e+000  1.677e+001
 1.419e+002  0.000e+000  1.677e+001
 1.399e+002  0.000e+000  1.677e+001
 1.379e+002  0.000e+000  1.677e+001
 1.359e+002  0.000e+000  1.677e+001
 1.339e+002  0.000e+000  1.677e+001
 1.319e+002  0.000e+000  1.677e+001
 1.299e+002  0.000e+000  1.677e+001
 1.280e+002  0.000e+000  1.677e+001
 1.260e+002  0.000e+000  1.677e+001
 1.240e+002  0.000e+000  1.677e+001
 1.220e+002  0.000e+000  1.677e+001
 1.200e+002  0.000e+000  1.677e+001
 1.180e+002  0.000e+000  1.677e+001
 1.161e+002  0.000e+000  1.677e+001
 1.141e+002  0.000e+000  1.677e+001
 1.121e+002  0.000e+000  1.677e+001
 1.101e+002  0.000e+000  1.677e+001
 1.081e+002  0.000e+000  1.677e+001
 1.061e+002  0.000e+000  1.677e+001
 1.041e+002  0.000e+000  1.677e+001
 1.022e+002  0.000e+000  1.677e+001
 1.002e+002  0.000e+000  1.677e+001
 9.820e+001  0.000e+000  1.677e+001
 9.621e+001  0.000e+000  1.677e+001
 9.423e+001  0.000e+000  1.677e+001
 9.224e+001  0.000e+000  1.677e+001
 2.939e+002  0.000e+000  1.677e+001
 2.918e+002  4.955e-002  1.677e+001
 2.897e+002  1.224e-001  1.677e+001
 2.876e+002  1.952e-001  1.677e+001
 2.855e+002  2.680e-001  1.677e+001
 2.834e+002  3.409e-001  1.677e+001
 2.813e+002  4.158e-001  1.677e+001
 2.792e+002  4.998e-001  1.677e+001
 2.772e+002  5.838e-001  1.677e+001
 2.751e+002  6.678e-001  1.677e+001
 2.730e+002  7.518e-001  1.677e+001
 2.709e+002  8.308e-001  1.677e+001
 2.688e+002  8.959e-001  1.677e+001
 2.667e+002  9.610e-001  1.677e+001
 2.646e+002  1.026e+000  1.677e+001
 2.625e+002  1.091e+000  1.677e+001
 2.605e+002  1.149e+000  1.677e+001
 2.584e+002  1.200e+000  1.677e+001
 2.563e+002  1.251e+000  1.677e+001
 2.542e+002  1.301e+000  1.677e+001
 2.521e+002  1.352e+000  1.677e+001
 2.500e+002  1.387e+000  1.677e+001
 2.479e+002  1.418e+000  1.677e+001
 2.458e+002  1.448e+000  1.677e+001
 2.437e+002  1.479e+000  1.677e+001
 2.416e+002  1.507e+000  1.677e+001
 2.395e+002  1.515e+000  1.677e+001
 2.374e+002  1.523e+000  1.677e+001
 2.353e+002  1.532e+000  1.677e+001
 2.332e+002  1.540e+000  1.677e+001
 2.311e+002  1.543e+000  1.677e+001
 2.290e+002  1.543e+000  1.677e+001
 2.269e+002  1.543e+000  1.677e+001
 2.248e+002  1.544e+000  1.677e+001
 2.227e+002  1.544e+000  1.677e+001
 2.206e+002  1.544e+000  1.677e+001
 2.185e+002  1.544e+000  1.677e+001
 2.164e+002  1.544e+000  1.677e+001
 2.143e+002  1.544e+000  1.677e+001
 2.122e+002  1.544e+000  1.677e+001
 2.101e+002  1.544e+000  1.677e+001
 2.080e+002  1.544e+000  1.677e+001
 2.059e+002  1.544e+000  1.677e+001
 2.038e+002  1.544e+000  1.677e+001
 2.017e+002  1.544e+000  1.677e+001
 1.996e+002  1.544e+000  1.677e+001
 1.975e+002  1.544e+000  1.677e+001
 1.954e+002  1.544e+000  1.677e+001
 1.933e+002  1.544e+000  1.677e+001
 1.912e+002  1.544e+000  1.677e+001
 1.891e+002  1.544e+000  1.677e+001
 1.870e+002  1.544e+000  1.677e+001
 1.849e+002  1.544e+000  1.677e+001
 1.828e+002  1.544e+000  1.677e+001
 1.807e+002  1.544e+000  1.677e+001
 1.786e+002  1.544e+000  1.677e+001
 1.765e+002  1.544e+000  1.677e+001
 1.744e+002  1.544e+000  1.677e+001
 1.723e+002  1.544e+000  1.677e+001
 1.702e+002  1.544e+000  1.677e+001
 1.681e+002  1.544e+000  1.677e+001
 1.660e+002  1.544e+000  1.677e+001
 1.639e+002  1.544e+000  1.677e+001
 1.618e+002  1.544e+000  1.677e+001
 1.597e+002  1.544e+000  1.677e+001
 1.576e+002  1.544e+000  1.677e+001
 1.555e+002  1.544e+000  1.677e+001
 1.534e+002  1.544e+000  1.677e+001
 1.513e+002  1.543e+000  1.677e+001
 1.492e+002  1.543e+000  1.677e+001
 1.471e+002  1.543e+000  1.677e+001
 1.450e+002  1.543e+000  1.677e+001
 1.429e+002  1.542e+000  1.677e+001
 1.408e+002  1.541e+000  1.677e+001
 1.387e+002  1.540e+000  1.677e+001
 1.366e+002  1.540e+000  1.677e+001
 1.345e+002  1.536e+000  1.677e+001
 1.324e+002  1.532e+000  1.677e+001
 1.303e+002  1.528e+000  1.677e+001
 1.282e+002  1.525e+000  1.677e+001
 1.261e+002  1.518e+000  1.677e+001
 1.240e+002  1.507e+000  1.677e+001
 1.219e+002  1.495e+000  1.677e+001
 1.198e+002  1.483e+000  1.677e+001
 1.177e+002  1.472e+000  1.677e+001
 1.156e+002  1.446e+000  1.677e+001
 1.135e+002  1.415e+000  1.677e+001
 1.114e+002  1.385e+000  1.677e+001
 1.093e+002  1.354e+000  1.677e+001
 1.072e+002  1.317e+000  1.677e+001
 1.051e+002  1.235e+000  1.677e+001
 1.030e+002  1.154e+000  1.677e+001
 1.009e+002  1.073e+000  1.677e+001
 9.883e+001  9.912e-001  1.677e+001
 9.674e+001  9.094e-001  1.677e+001
 9.466e+001  8.261e-001  1.677e+001
 9.271e+001  6.619e-001  1.677e+001
 9.083e+001  4.414e-001  1.677e+001
 8.895e+001  2.208e-001  1.677e+001
 8.707e+001  2.739e-004  1.677e+001
 2.990e+002  0.000e+000  1.677e+001
 2.968e+002  9.911e-002  1.677e+001
 2.946e+002  2.448e-001  1.677e+001
 2.924e+002  3.904e-001  1.677e+001
 2.903e+002  5.361e-001  1.677e+001
 2.881e+002  6.817e-001  1.677e+001
 2.859e+002  8.316e-001  1.677e+001
 2.837e+002  9.996e-001  1.677e+001
 2.815e+002  1.168e+000  1.677e+001
 2.793e+002  1.336e+000  1.677e+001
 2.771e+002  1.504e+000  1.677e+001
 2.750e+002  1.662e+000  1.677e+001
 2.728e+002  1.792e+000  1.677e+001
 2.706e+002  1.922e+000  1.677e+001
 2.684e+002  2.052e+000  1.677e+001
 2.662e+002  2.182e+000  1.677e+001
 2.640e+002  2.299e+000  1.677e+001
 2.618e+002  2.400e+000  1.677e+001
 2.596e+002  2.501e+000  1.677e+001
 2.573e+002  2.602e+000  1.677e+001
 2.551e+002  2.704e+000  1.677e+001
 2.529e+002  2.774e+000  1.677e+001
 2.507e+002  2.835e+000  1.677e+001
 2.485e+002  2.897e+000  1.677e+001
 2.463e+002  2.959e+000  1.677e+001
 2.441e+002  3.013e+000  1.677e+001
 2.419e+002  3.030e+000  1.677e+001
 2.397e+002  3.046e+000  1.677e+001
 2.374e+002  3.063e+000  1.677e+001
 2.352e+002  3.080e+000  1.677e+001
 2.330e+002  3.086e+000  1.677e+001
 2.308e+002  3.087e+000  1.677e+001
 2.286e+002  3.087e+000  1.677e+001
 2.264e+002  3.087e+000  1.677e+001
 2.241e+002  3.087e+000  1.677e+001
 2.219e+002  3.087e+000  1.677e+001
 2.197e+002  3.087e+000  1.677e+001
 2.175e+002  3.087e+000  1.677e+001
 2.153e+002  3.087e+000  1.677e+001
 2.131e+002  3.087e+000  1.677e+001
 2.108e+002  3.087e+000  1.677e+001
 2.086e+002  3.087e+000  1.677e+001
 2.064e+002  3.087e+000  1.677e+001
 2.042e+002  3.087e+000  1.677e+001
 2.020e+002  3.087e+000  1.677e+001
 1.998e+002  3.087e+000  1.677e+001
 1.975e+002  3.087e+000  1.677e+001
 1.953e+002  3.087e+000  1.677e+001
 1.931e+002  3.087e+000  1.677e+001
 1.909e+002  3.087e+000  1.677e+001
 1.887e+002  3.087e+000  1.677e+001
 1.865e+002  3.087e+000  1.677e+001
 1.842e+002  3.087e+000  1.677e+001
 1.820e+002  3.087e+000  1.677e+001
 1.798e+002  3.087e+000  1.677e+001
 1.776e+002  3.087e+000  1.677e+001
 1.754e+002  3.087e+000  1.677e+001
 1.732e+002  3.087e+000  1.677e+001
 1.709e+002  3.087e+000  1.677e+001
 1.687e+002  3.087e+000  1.677e+001
 1.665e+002  3.087e+000  1.677e+001
 1.643e+002  3.087e+000  1.677e+001
 1.621e+002  3.087e+000  1.677e+001
 1.599e+002  3.087e+000  1.677e+001
 1.576e+002  3.087e+000  1.677e+001
 1.554e+002  3.087e+000  1.677e+001
 1.532e+002  3.087e+000  1.677e+001
 1.510e+002  3.087e+000  1.677e+001
 1.488e+002  3.087e+000  1.677e+001
 1.466e+002  3.087e+000  1.677e+001
 1.443e+002  3.086e+000  1.677e+001
 1.421e+002  3.086e+000  1.677e+001
 1.399e+002  3.084e+000  1.677e+001
 1.377e+002  3.082e+000  1.677e+001
 1.355e+002  3.081e+000  1.677e+001
 1.333e+002  3.079e+000  1.677e+001
 1.310e+002  3.072e+000  1.677e+001
 1.288e+002  3.065e+000  1.677e+001
 1.266e+002  3.057e+000  1.677e+001
 1.244e+002  3.049e+000  1.677e+001
 1.222e+002  3.037e+000  1.677e+001
 1.200e+002  3.013e+000  1.677e+001
 1.177e+002  2.990e+000  1.677e+001
 1.155e+002  2.967e+000  1.677e+001
 1.133e+002  2.944e+000  1.677e+001
 1.111e+002  2.892e+000  1.677e+001
 1.089e+002  2.831e+000  1.677e+001
 1.067e+002  2.770e+000  1.677e+001
 1.045e+002  2.708e+000  1.677e+001
 1.022e+002  2.633e+000  1.677e+001
 1.001e+002  2.471e+000  1.677e+001
 9.788e+001  2.308e+000  1.677e+001
 9.569e+001  2.145e+000  1.677e+001
 9.350e+001  1.982e+000  1.677e+001
 9.132e+001  1.819e+000  1.677e+001
 8.914e+001  1.652e+000  1.677e+001
 8.723e+001  1.324e+000  1.677e+001
 8.545e+001  8.828e-001  1.677e+001
 8.368e+001  4.417e-001  1.677e+001
 8.190e+001  5.477e-004  1.677e+001
 3.042e+002  0.000e+000  1.677e+001
 3.019e+002  1.487e-001  1.677e+001
 2.996e+002  3.671e-001  1.677e+001
 2.973e+002  5.856e-001  1.677e+001
 2.950e+002  8.041e-001  1.677e+001
 2.927e+002  1.023e+000  1.677e+001
 2.904e+002  1.247e+000  1.677e+001
 2.881e+002  1.499e+000  1.677e+001
 2.858e+002  1.751e+000  1.677e+001
 2.836e+002  2.003e+000  1.677e+001
 2.813e+002  2.255e+000  1.677e+001
 2.790e+002  2.492e+000  1.677e+001
 2.767e+002  2.688e+000  1.677e+001
 2.744e+002  2.883e+000  1.677e+001
 2.721e+002  3.078e+000  1.677e+001
 2.698e+002  3.273e+000  1.677e+001
 2.675e+002  3.448e+000  1.677e+001
 2.652e+002  3.600e+000  1.677e+001
 2.628e+002  3.752e+000  1.677e+001
 2.605e+002  3.904e+000  1.677e+001
 2.582e+002  4.055e+000  1.677e+001
 2.559e+002  4.161e+000  1.677e+001
 2.536e+002  4.253e+000  1.677e+001
 2.512e+002  4.345e+000  1.677e+001
 2.489e+002  4.438e+000  1.677e+001
 2.466e+002  4.520e+000  1.677e+001
 2.442e+002  4.545e+000  1.677e+001
 2.419e+002  4.570e+000  1.677e+001
 2.396e+002  4.595e+000  1.677e+001
 2.373e+002  4.619e+000  1.677e+001
 2.349e+002  4.630e+000  1.677e+001
 2.326e+002  4.630e+000  1.677e+001
 2.303e+002  4.630e+000  1.677e+001
 2.279e+002  4.631e+000  1.677e+001
 2.256e+002  4.631e+000  1.677e+001
 2.233e+002  4.631e+000  1.677e+001
 2.209e+002  4.631e+000  1.677e+001
 2.186e+002  4.631e+000  1.677e+001
 2.163e+002  4.631e+000  1.677e+001
 2.139e+002  4.631e+000  1.677e+001
 2.116e+002  4.631e+000  1.677e+001
 2.093e+002  4.631e+000  1.677e+001
 2.069e+002  4.631e+000  1.677e+001
 2.046e+002  4.631e+000  1.677e+001
 2.023e+002  4.631e+000  1.677e+001
 1.999e+002  4.631e+000  1.677e+001
 1.976e+002  4.631e+000  1.677e+001
 1.953e+002  4.631e+000  1.677e+001
 1.929e+002  4.631e+000  1.677e+001
 1.906e+002  4.631e+000  1.677e+001
 1.883e+002  4.631e+000  1.677e+001
 1.859e+002  4.631e+000  1.677e+001
 1.836e+002  4.631e+000  1.677e+001
 1.813e+002  4.631e+000  1.677e+001
 1.789e+002  4.631e+000  1.677e+001
 1.766e+002  4.631e+000  1.677e+001
 1.743e+002  4.631e+000  1.677e+001
 1.719e+002  4.631e+000  1.677e+001
 1.696e+002  4.631e+000  1.677e+001
 1.673e+002  4.631e+000  1.677e+001
 1.649e+002  4.631e+000  1.677e+001
 1.626e+002  4.631e+000  1.677e+001
 1.603e+002  4.631e+000  1.677e+001
 1.579e+002  4.631e+000  1.677e+001
 1.556e+002  4.631e+000  1.677e+001
 1.533e+002  4.631e+000  1.677e+001
 1.509e+002  4.631e+000  1.677e+001
 1.486e+002  4.631e+000  1.677e+001
 1.463e+002  4.630e+000  1.677e+001
 1.439e+002  4.630e+000  1.677e+001
 1.416e+002  4.630e+000  1.677e+001
 1.393e+002  4.628e+000  1.677e+001
 1.369e+002  4.626e+000  1.677e+001
 1.346e+002  4.624e+000  1.677e+001
 1.323e+002  4.621e+000  1.677e+001
 1.299e+002  4.619e+000  1.677e+001
 1.276e+002  4.608e+000  1.677e+001
 1.253e+002  4.597e+000  1.677e+001
 1.229e+002  4.585e+000  1.677e+001
 1.206e+002  4.574e+000  1.677e+001
 1.183e+002  4.555e+000  1.677e+001
 1.160e+002  4.520e+000  1.677e+001
 1.136e+002  4.485e+000  1.677e+001
 1.113e+002  4.450e+000  1.677e+001
 1.090e+002  4.415e+000  1.677e+001
 1.066e+002  4.338e+000  1.677e+001
 1.043e+002  4.246e+000  1.677e+001
 1.020e+002  4.154e+000  1.677e+001
 9.965e+001  4.063e+000  1.677e+001
 9.733e+001  3.950e+000  1.677e+001
 9.504e+001  3.706e+000  1.677e+001
 9.275e+001  3.462e+000  1.677e+001
 9.047e+001  3.218e+000  1.677e+001
 8.818e+001  2.974e+000  1.677e+001
 8.590e+001  2.728e+000  1.677e+001
 8.361e+001  2.478e+000  1.677e+001
 8.175e+001  1.986e+000  1.677e+001
 8.008e+001  1.324e+000  1.677e+001
 7.840e+001  6.625e-001  1.677e+001
 7.673e+001  8.216e-004  1.677e+001
 3.094e+002  0.000e+000  1.677e+001
 3.069e+002  1.982e-001  1.677e+001
 3.045e+002  4.895e-001  1.677e+001
 3.021e+002  7.808e-001  1.677e+001
 2.997e+002  1.072e+000  1.677e+001
 2.974e+002  1.363e+000  1.677e+001
 2.950e+002  1.663e+000  1.677e+001
 2.926e+002  1.999e+000  1.677e+001
 2.902e+002  2.335e+000  1.677e+001
 2.878e+002  2.671e+000  1.677e+001
 2.854e+002  3.007e+000  1.677e+001
 2.830e+002  3.323e+000  1.677e+001
 2.806e+002  3.584e+000  1.677e+001
 2.782e+002  3.844e+000  1.677e+001
 2.758e+002  4.104e+000  1.677e+001
 2.734e+002  4.365e+000  1.677e+001
 2.710e+002  4.598e+000  1.677e+001
 2.686e+002  4.800e+000  1.677e+001
 2.661e+002  5.002e+000  1.677e+001
 2.637e+002  5.205e+000  1.677e+001
 2.613e+002  5.407e+000  1.677e+001
 2.588e+002  5.547e+000  1.677e+001
 2.564e+002  5.671e+000  1.677e+001
 2.540e+002  5.794e+000  1.677e+001
 2.515e+002  5.917e+000  1.677e+001
 2.491e+002  6.026e+000  1.677e+001
 2.466e+002  6.060e+000  1.677e+001
 2.442e+002  6.093e+000  1.677e+001
 2.417e+002  6.126e+000  1.677e+001
 2.393e+002  6.159e+000  1.677e+001
 2.368e+002  6.173e+000  1.677e+001
 2.344e+002  6.173e+000  1.677e+001
 2.319e+002  6.174e+000  1.677e+001
 2.295e+002  6.174e+000  1.677e+001
 2.270e+002  6.175e+000  1.677e+001
 2.246e+002  6.175e+000  1.677e+001
 2.221e+002  6.175e+000  1.677e+001
 2.197e+002  6.175e+000  1.677e+001
 2.172e+002  6.175e+000  1.677e+001
 2.148e+002  6.175e+000  1.677e+001
 2.123e+002  6.175e+000  1.677e+001
 2.099e+002  6.175e+000  1.677e+001
 2.075e+002  6.175e+000  1.677e+001
 2.050e+002  6.175e+000  1.677e+001
 2.026e+002  6.175e+000  1.677e+001
 2.001e+002  6.175e+000  1.677e+001
 1.977e+002  6.175e+000  1.677e+001
 1.952e+002  6.175e+000  1.677e+001
 1.928e+002  6.175e+000  1.677e+001
 1.903e+002  6.175e+000  1.677e+001
 1.879e+002  6.175e+000  1.677e+001
 1.854e+002  6.175e+000  1.677e+001
 1.830e+002  6.175e+000  1.677e+001
 1.805e+002  6.175e+000  1.677e+001
 1.781e+002  6.175e+000  1.677e+001
 1.756e+002  6.175e+000  1.677e+001
 1.732e+002  6.175e+000  1.677e+001
 1.707e+002  6.175e+000  1.677e+001
 1.683e+002  6.175e+000  1.677e+001
 1.658e+002  6.175e+000  1.677e+001
 1.634e+002  6.175e+000  1.677e+001
 1.609e+002  6.175e+000  1.677e+001
 1.585e+002  6.175e+000  1.677e+001
 1.560e+002  6.175e+000  1.677e+001
 1.536e+002  6.175e+000  1.677e+001
 1.511e+002  6.175e+000  1.677e+001
 1.487e+002  6.175e+000  1.677e+001
 1.462e+002  6.174e+000  1.677e+001
 1.438e+002  6.174e+000  1.677e+001
 1.413e+002  6.173e+000  1.677e+001
 1.389e+002  6.173e+000  1.677e+001
 1.364e+002  6.171e+000  1.677e+001
 1.340e+002  6.168e+000  1.677e+001
 1.315e+002  6.165e+000  1.677e+001
 1.291e+002  6.161e+000  1.677e+001
 1.266e+002  6.158e+000  1.677e+001
 1.242e+002  6.144e+000  1.677e+001
 1.217e+002  6.129e+000  1.677e+001
 1.193e+002  6.114e+000  1.677e+001
 1.168e+002  6.099e+000  1.677e+001
 1.144e+002  6.073e+000  1.677e+001
 1.119e+002  6.027e+000  1.677e+001
 1.095e+002  5.980e+000  1.677e+001
 1.071e+002  5.934e+000  1.677e+001
 1.046e+002  5.887e+000  1.677e+001
 1.022e+002  5.784e+000  1.677e+001
 9.972e+001  5.661e+000  1.677e+001
 9.728e+001  5.539e+000  1.677e+001
 9.484e+001  5.417e+000  1.677e+001
 9.241e+001  5.266e+000  1.677e+001
 9.002e+001  4.941e+000  1.677e+001
 8.763e+001  4.616e+000  1.677e+001
 8.525e+001  4.290e+000  1.677e+001
 8.286e+001  3.965e+000  1.677e+001
 8.047e+001  3.638e+000  1.677e+001
 7.809e+001  3.304e+000  1.677e+001
 7.626e+001  2.648e+000  1.677e+001
 7.470e+001  1.766e+000  1.677e+001
 7.313e+001  8.833e-001  1.677e+001
 7.156e+001  1.095e-003  1.677e+001
 3.145e+002  0.000e+000  1.677e+001
 3.120e+002  2.478e-001  1.677e+001
 3.095e+002  6.119e-001  1.677e+001
 3.070e+002  9.760e-001  1.677e+001
 3.045e+002  1.340e+000  1.677e+001
 3.020e+002  1.704e+000  1.677e+001
 2.995e+002  2.079e+000  1.677e+001
 2.970e+002  2.499e+000  1.677e+001
 2.945e+002  2.919e+000  1.677e+001
 2.920e+002  3.339e+000  1.677e+001
 2.896e+002  3.759e+000  1.677e+001
 2.871e+002  4.154e+000  1.677e+001
 2.846e+002  4.479e+000  1.677e+001
 2.820e+002  4.805e+000  1.677e+001
 2.795e+002  5.130e+000  1.677e+001
 2.770e+002  5.456e+000  1.677e+001
 2.745e+002  5.747e+000  1.677e+001
 2.720e+002  6.000e+000  1.677e+001
 2.694e+002  6.253e+000  1.677e+001
 2.669e+002  6.506e+000  1.677e+001
 2.643e+002  6.759e+000  1.677e+001
 2.618e+002  6.934e+000  1.677e+001
 2.592e+002  7.088e+000  1.677e+001
 2.567e+002  7.242e+000  1.677e+001
 2.541e+002  7.397e+000  1.677e+001
 2.516e+002  7.533e+000  1.677e+001
 2.490e+002  7.574e+000  1.677e+001
 2.464e+002  7.616e+000  1.677e+001
 2.439e+002  7.658e+000  1.677e+001
 2.413e+002  7.699e+000  1.677e+001
 2.388e+002  7.716e+000  1.677e+001
 2.362e+002  7.717e+000  1.677e+001
 2.336e+002  7.717e+000  1.677e+001
 2.311e+002  7.718e+000  1.677e+001
 2.285e+002  7.718e+000  1.677e+001
 2.259e+002  7.718e+000  1.677e+001
 2.234e+002  7.718e+000  1.677e+001
 2.208e+002  7.718e+000  1.677e+001
 2.182e+002  7.718e+000  1.677e+001
 2.157e+002  7.718e+000  1.677e+001
 2.131e+002  7.718e+000  1.677e+001
 2.105e+002  7.718e+000  1.677e+001
 2.080e+002  7.718e+000  1.677e+001
 2.054e+002  7.718e+000  1.677e+001
 2.028e+002  7.718e+000  1.677e+001
 2.003e+002  7.718e+000  1.677e+001
 1.977e+002  7.718e+000  1.677e+001
 1.951e+002  7.718e+000  1.677e+001
 1.926e+002  7.718e+000  1.677e+001
 1.900e+002  7.718e+000  1.677e+001
 1.875e+002  7.718e+000  1.677e+001
 1.849e+002  7.718e+000  1.677e+001
 1.823e+002  7.718e+000  1.677e+001
 1.798e+002  7.718e+000  1.677e+001
 1.772e+002  7.718e+000  1.677e+001
 1.746e+002  7.718e+000  1.677e+001
 1.721e+002  7.718e+000  1.677e+001
 1.695e+002  7.718e+000  1.677e+001
 1.669e+002  7.718e+000  1.677e+001
 1.644e+002  7.718e+000  1.677e+001
 1.618e+002  7.718e+000  1.677e+001
 1.592e+002  7.718e+000  1.677e+001
 1.567e+002  7.718e+000  1.677e+001
 1.541e+002  7.718e+000  1.677e+001
 1.515e+002  7.718e+000  1.677e+001
 1.490e+002  7.718e+000  1.677e+001
 1.464e+002  7.718e+000  1.677e+001
 1.438e+002  7.718e+000  1.677e+001
 1.413e+002  7.717e+000  1.677e+001
 1.387e+002  7.717e+000  1.677e+001
 1.362e+002  7.716e+000  1.677e+001
 1.336e+002  7.714e+000  1.677e+001
 1.310e+002  7.710e+000  1.677e+001
 1.285e+002  7.706e+000  1.677e+001
 1.259e+002  7.702e+000  1.677e+001
 1.233e+002  7.698e+000  1.677e+001
 1.208e+002  7.680e+000  1.677e+001
 1.182e+002  7.661e+000  1.677e+001
 1.156e+002  7.642e+000  1.677e+001
 1.131e+002  7.623e+000  1.677e+001
 1.105e+002  7.591e+000  1.677e+001
 1.079e+002  7.533e+000  1.677e+001
 1.054e+002  7.475e+000  1.677e+001
 1.028e+002  7.417e+000  1.677e+001
 1.003e+002  7.359e+000  1.677e+001
 9.770e+001  7.230e+000  1.677e+001
 9.514e+001  7.077e+000  1.677e+001
 9.259e+001  6.924e+000  1.677e+001
 9.003e+001  6.771e+000  1.677e+001
 8.749e+001  6.583e+000  1.677e+001
 8.500e+001  6.176e+000  1.677e+001
 8.251e+001  5.769e+000  1.677e+001
 8.003e+001  5.363e+000  1.677e+001
 7.754e+001  4.956e+000  1.677e+001
 7.505e+001  4.547e+000  1.677e+001
 7.257e+001  4.130e+000  1.677e+001
 7.078e+001  3.310e+000  1.677e+001
 6.932e+001  2.207e+000  1.677e+001
 6.786e+001  1.104e+000  1.677e+001
 6.639e+001  1.369e-003  1.677e+001
 3.197e+002  0.000e+000  1.677e+001
 3.171e+002  2.973e-001  1.677e+001
 3.145e+002  7.343e-001  1.677e+001
 3.118e+002  1.171e+000  1.677e+001
 3.092e+002  1.608e+000  1.677e+001
 3.066e+002  2.045e+000  1.677e+001
 3.040e+002  2.495e+000  1.677e+001
 3.015e+002  2.999e+000  1.677e+001
 2.989e+002  3.503e+000  1.677e+001
 2.963e+002  4.007e+000  1.677e+001
 2.937e+002  4.511e+000  1.677e+001
 2.911e+002  4.985e+000  1.677e+001
 2.885e+002  5.375e+000  1.677e+001
 2.859e+002  5.766e+000  1.677e+001
 2.832e+002  6.156e+000  1.677e+001
 2.806e+002  6.547e+000  1.677e+001
 2.780e+002  6.897e+000  1.677e+001
 2.753e+002  7.200e+000  1.677e+001
 2.727e+002  7.504e+000  1.677e+001
 2.701e+002  7.807e+000  1.677e+001
 2.674e+002  8.111e+000  1.677e+001
 2.647e+002  8.321e+000  1.677e+001
 2.621e+002  8.506e+000  1.677e+001
 2.594e+002  8.691e+000  1.677e+001
 2.567e+002  8.876e+000  1.677e+001
 2.541e+002  9.039e+000  1.677e+001
 2.514e+002  9.089e+000  1.677e+001
 2.487e+002  9.139e+000  1.677e+001
 2.460e+002  9.189e+000  1.677e+001
 2.434e+002  9.239e+000  1.677e+001
 2.407e+002  9.259e+000  1.677e+001
 2.380e+002  9.260e+000  1.677e+001
 2.353e+002  9.261e+000  1.677e+001
 2.326e+002  9.261e+000  1.677e+001
 2.299e+002  9.262e+000  1.677e+001
 2.273e+002  9.262e+000  1.677e+001
 2.246e+002  9.262e+000  1.677e+001
 2.219e+002  9.262e+000  1.677e+001
 2.192e+002  9.262e+000  1.677e+001
 2.165e+002  9.262e+000  1.677e+001
 2.139e+002  9.262e+000  1.677e+001
 2.112e+002  9.262e+000  1.677e+001
 2.085e+002  9.262e+000  1.677e+001
 2.058e+002  9.262e+000  1.677e+001
 2.031e+002  9.262e+000  1.677e+001
 2.005e+002  9.262e+000  1.677e+001
 1.978e+002  9.262e+000  1.677e+001
 1.951e+002  9.262e+000  1.677e+001
 1.924e+002  9.262e+000  1.677e+001
 1.897e+002  9.262e+000  1.677e+001
 1.870e+002  9.262e+000  1.677e+001
 1.844e+002  9.262e+000  1.677e+001
 1.817e+002  9.262e+000  1.677e+001
 1.790e+002  9.262e+000  1.677e+001
 1.763e+002  9.262e+000  1.677e+001
 1.736e+002  9.262e+000  1.677e+001
 1.710e+002  9.262e+000  1.677e+001
 1.683e+002  9.262e+000  1.677e+001
 1.656e+002  9.262e+000  1.677e+001
 1.629e+002  9.262e+000  1.677e+001
 1.602e+002  9.262e+000  1.677e+001
 1.576e+002  9.262e+000  1.677e+001
 1.549e+002  9.262e+000  1.677e+001
 1.522e+002  9.262e+000  1.677e+001
 1.495e+002  9.262e+000  1.677e+001
 1.468e+002  9.262e+000  1.677e+001
 1.442e+002  9.262e+000  1.677e+001
 1.415e+002  9.261e+000  1.677e+001
 1.388e+002  9.261e+000  1.677e+001
 1.361e+002  9.260e+000  1.677e+001
 1.334e+002  9.259e+000  1.677e+001
 1.307e+002  9.257e+000  1.677e+001
 1.281e+002  9.252e+000  1.677e+001
 1.254e+002  9.247e+000  1.677e+001
 1.227e+002  9.242e+000  1.677e+001
 1.200e+002  9.237e+000  1.677e+001
 1.173e+002  9.216e+000  1.677e+001
 1.147e+002  9.194e+000  1.677e+001
 1.120e+002  9.171e+000  1.677e+001
 1.093e+002  9.148e+000  1.677e+001
 1.066e+002  9.110e+000  1.677e+001
 1.039e+002  9.040e+000  1.677e+001
 1.013e+002  8.970e+000  1.677e+001
 9.858e+001  8.901e+000  1.677e+001
 9.590e+001  8.831e+000  1.677e+001
 9.323e+001  8.676e+000  1.677e+001
 9.056e+001  8.492e+000  1.677e+001
 8.789e+001  8.309e+000  1.677e+001
 8.522e+001  8.125e+000  1.677e+001
 8.257e+001  7.900e+000  1.677e+001
 7.998e+001  7.412e+000  1.677e+001
 7.739e+001  6.923e+000  1.677e+001
 7.480e+001  6.435e+000  1.677e+001
 7.222e+001  5.947e+000  1.677e+001
 6.963e+001  5.456e+000  1.677e+001
 6.705e+001  4.956e+000  1.677e+001
 6.530e+001  3.972e+000  1.677e+001
 6.394e+001  2.648e+000  1.677e+001
 6.258e+001  1.325e+000  1.677e+001
 6.122e+001  1.643e-003  1.677e+001
 3.249e+002  0.000e+000  1.677e+001
 3.221e+002  3.469e-001  1.677e+001
 3.194e+002  8.567e-001  1.677e+001
 3.167e+002  1.366e+000  1.677e+001
 3.140e+002  1.876e+000  1.677e+001
 3.113e+002  2.386e+000  1.677e+001
 3.086e+002  2.911e+000  1.677e+001
 3.059e+002  3.499e+000  1.677e+001
 3.032e+002  4.087e+000  1.677e+001
 3.005e+002  4.675e+000  1.677e+001
 2.979e+002  5.262e+000  1.677e+001
 2.952e+002  5.816e+000  1.677e+001
 2.924e+002  6.271e+000  1.677e+001
 2.897e+002  6.727e+000  1.677e+001
 2.870e+002  7.182e+000  1.677e+001
 2.842e+002  7.638e+000  1.677e+001
 2.815e+002  8.046e+000  1.677e+001
 2.787e+002  8.400e+000  1.677e+001
 2.760e+002  8.754e+000  1.677e+001
 2.732e+002  9.108e+000  1.677e+001
 2.705e+002  9.462e+000  1.677e+001
 2.677e+002  9.708e+000  1.677e+001
 2.649e+002  9.924e+000  1.677e+001
 2.621e+002  1.014e+001  1.677e+001
 2.594e+002  1.036e+001  1.677e+001
 2.566e+002  1.055e+001  1.677e+001
 2.538e+002  1.060e+001  1.677e+001
 2.510e+002  1.066e+001  1.677e+001
 2.482e+002  1.072e+001  1.677e+001
 2.454e+002  1.078e+001  1.677e+001
 2.426e+002  1.080e+001  1.677e+001
 2.398e+002  1.080e+001  1.677e+001
 2.370e+002  1.080e+001  1.677e+001
 2.342e+002  1.080e+001  1.677e+001
 2.314e+002  1.081e+001  1.677e+001
 2.286e+002  1.081e+001  1.677e+001
 2.258e+002  1.081e+001  1.677e+001
 2.230e+002  1.081e+001  1.677e+001
 2.202e+002  1.081e+001  1.677e+001
 2.174e+002  1.081e+001  1.677e+001
 2.146e+002  1.081e+001  1.677e+001
 2.118e+002  1.081e+001  1.677e+001
 2.090e+002  1.081e+001  1.677e+001
 2.062e+002  1.081e+001  1.677e+001
 2.034e+002  1.081e+001  1.677e+001
 2.006e+002  1.081e+001  1.677e+001
 1.978e+002  1.081e+001  1.677e+001
 1.950e+002  1.081e+001  1.677e+001
 1.922e+002  1.081e+001  1.677e+001
 1.894e+002  1.081e+001  1.677e+001
 1.866e+002  1.081e+001  1.677e+001
 1.838e+002  1.081e+001  1.677e+001
 1.811e+002  1.081e+001  1.677e+001
 1.783e+002  1.081e+001  1.677e+001
 1.755e+002  1.081e+001  1.677e+001
 1.727e+002  1.081e+001  1.677e+001
 1.699e+002  1.081e+001  1.677e+001
 1.671e+002  1.081e+001  1.677e+001
 1.643e+002  1.081e+001  1.677e+001
 1.615e+002  1.081e+001  1.677e+001
 1.587e+002  1.081e+001  1.677e+001
 1.559e+002  1.081e+001  1.677e+001
 1.531e+002  1.081e+001  1.677e+001
 1.503e+002  1.081e+001  1.677e+001
 1.475e+002  1.081e+001  1.677e+001
 1.447e+002  1.081e+001  1.677e+001
 1.419e+002  1.081e+001  1.677e+001
 1.391e+002  1.080e+001  1.677e+001
 1.363e+002  1.080e+001  1.677e+001
 1.335e+002  1.080e+001  1.677e+001
 1.307e+002  1.080e+001  1.677e+001
 1.279e+002  1.080e+001  1.677e+001
 1.251e+002  1.079e+001  1.677e+001
 1.223e+002  1.079e+001  1.677e+001
 1.195e+002  1.078e+001  1.677e+001
 1.167e+002  1.078e+001  1.677e+001
 1.139e+002  1.075e+001  1.677e+001
 1.111e+002  1.073e+001  1.677e+001
 1.083e+002  1.070e+001  1.677e+001
 1.055e+002  1.067e+001  1.677e+001
 1.027e+002  1.063e+001  1.677e+001
 9.993e+001  1.055e+001  1.677e+001
 9.714e+001  1.047e+001  1.677e+001
 9.434e+001  1.038e+001  1.677e+001
 9.155e+001  1.030e+001  1.677e+001
 8.876e+001  1.012e+001  1.677e+001
 8.598e+001  9.908e+000  1.677e+001
 8.320e+001  9.694e+000  1.677e+001
 8.042e+001  9.480e+000  1.677e+001
 7.765e+001  9.216e+000  1.677e+001
 7.496e+001  8.647e+000  1.677e+001
 7.227e+001  8.077e+000  1.677e+001
 6.958e+001  7.508e+000  1.677e+001
 6.689e+001  6.938e+000  1.677e+001
 6.421e+001  6.366e+000  1.677e+001
 6.152e+001  5.782e+000  1.677e+001
 5.981e+001  4.634e+000  1.677e+001
 5.856e+001  3.090e+000  1.677e+001
 5.731e+001  1.546e+000  1.677e+001
 5.605e+001  1.917e-003  1.677e+001
 3.300e+002  0.000e+000  1.677e+001
 3.272e+002  3.964e-001  1.677e+001
 3.244e+002  9.790e-001  1.677e+001
 3.216e+002  1.562e+000  1.677e+001
 3.187e+002  2.144e+000  1.677e+001
 3.159e+002  2.727e+000  1.677e+001
 3.131e+002  3.327e+000  1.677e+001
 3.103e+002  3.999e+000  1.677e+001
 3.076e+002  4.670e+000  1.677e+001
 3.048e+002  5.342e+000  1.677e+001
 3.020e+002  6.014e+000  1.677e+001
 2.992e+002  6.646e+000  1.677e+001
 2.964e+002  7.167e+000  1.677e+001
 2.935e+002  7.688e+000  1.677e+001
 2.907e+002  8.208e+000  1.677e+001
 2.879e+002  8.729e+000  1.677e+001
 2.850e+002  9.196e+000  1.677e+001
 2.821e+002  9.600e+000  1.677e+001
 2.793e+002  1.000e+001  1.677e+001
 2.764e+002  1.041e+001  1.677e+001
 2.735e+002  1.081e+001  1.677e+001
 2.707e+002  1.109e+001  1.677e+001
 2.678e+002  1.134e+001  1.677e+001
 2.649e+002  1.159e+001  1.677e+001
 2.620e+002  1.183e+001  1.677e+001
 2.591e+002  1.205e+001  1.677e+001
 2.562e+002  1.212e+001  1.677e+001
 2.532e+002  1.219e+001  1.677e+001
 2.503e+002  1.225e+001  1.677e+001
 2.474e+002  1.232e+001  1.677e+001