TITLE = "NODEELEMENT"
VARIABLES = "X", "Y", "Z"
ZONE N=     51, E=     50, F=FEPOINT, ET=QUADRILATERAL
0.000000e+000  0.000000e+000  0.000000e+000 
2.451094e+000  0.000000e+000  0.000000e+000 
4.902187e+000  0.000000e+000  0.000000e+000 
7.353281e+000  0.000000e+000  0.000000e+000 
9.804375e+000  0.000000e+000  0.000000e+000 
1.225547e+001  0.000000e+000  0.000000e+000 
1.470656e+001  0.000000e+000  0.000000e+000 
1.715766e+001  0.000000e+000  0.000000e+000 
1.960875e+001  0.000000e+000  0.000000e+000 
2.205984e+001  0.000000e+000  0.000000e+000 
2.451094e+001  0.000000e+000  0.000000e+000 
2.696203e+001  0.000000e+000  0.000000e+000 
2.941312e+001  0.000000e+000  0.000000e+000 
3.186422e+001  0.000000e+000  0.000000e+000 
3.431531e+001  0.000000e+000  0.000000e+000 
3.676640e+001  0.000000e+000  0.000000e+000 
3.921750e+001  0.000000e+000  0.000000e+000 
4.162969e+001  0.000000e+000  0.000000e+000 
4.404187e+001  0.000000e+000  0.000000e+000 
4.645406e+001  0.000000e+000  0.000000e+000 
4.886625e+001  0.000000e+000  0.000000e+000 
5.127844e+001  0.000000e+000  0.000000e+000 
5.369062e+001  0.000000e+000  0.000000e+000 
5.610281e+001  0.000000e+000  0.000000e+000 
5.851500e+001  0.000000e+000  0.000000e+000 
6.092719e+001  0.000000e+000  0.000000e+000 
6.333937e+001  0.000000e+000  0.000000e+000 
6.575156e+001  0.000000e+000  0.000000e+000 
6.816375e+001  0.000000e+000  0.000000e+000 
7.057594e+001  0.000000e+000  0.000000e+000 
7.298813e+001  0.000000e+000  0.000000e+000 
7.540031e+001  0.000000e+000  0.000000e+000 
7.781250e+001  0.000000e+000  0.000000e+000 
8.040625e+001  0.000000e+000  0.000000e+000 
8.300000e+001  0.000000e+000  0.000000e+000 
8.559375e+001  0.000000e+000  0.000000e+000 
8.818750e+001  0.000000e+000  0.000000e+000 
9.078125e+001  0.000000e+000  0.000000e+000 
9.337500e+001  0.000000e+000  0.000000e+000 
9.596875e+001  0.000000e+000  0.000000e+000 
9.856250e+001  0.000000e+000  0.000000e+000 
1.011563e+002  0.000000e+000  0.000000e+000 
1.037500e+002  0.000000e+000  0.000000e+000 
1.063438e+002  0.000000e+000  0.000000e+000 
1.089375e+002  0.000000e+000  0.000000e+000 
1.115313e+002  0.000000e+000  0.000000e+000 
1.141250e+002  0.000000e+000  0.000000e+000 
1.167188e+002  0.000000e+000  0.000000e+000 
1.193125e+002  0.000000e+000  0.000000e+000 
1.219063e+002  0.000000e+000  0.000000e+000 
1.245000e+002  0.000000e+000  0.000000e+000 
 1        2        1        2       
 2        3        2        3       
 3        4        3        4       
 4        5        4        5       
 5        6        5        6       
 6        7        6        7       
 7        8        7        8       
 8        9        8        9       
 9        10       9        10      
 10       11       10       11      
 11       12       11       12      
 12       13       12       13      
 13       14       13       14      
 14       15       14       15      
 15       16       15       16      
 16       17       16       17      
 17       18       17       18      
 18       19       18       19      
 19       20       19       20      
 20       21       20       21      
 21       22       21       22      
 22       23       22       23      
 23       24       23       24      
 24       25       24       25      
 25       26       25       26      
 26       27       26       27      
 27       28       27       28      
 28       29       28       29      
 29       30       29       30      
 30       31       30       31      
 31       32       31       32      
 32       33       32       33      
 33       34       33       34      
 34       35       34       35      
 35       36       35       36      
 36       37       36       37      
 37       38       37       38      
 38       39       38       39      
 39       40       39       40      
 40       41       40       41      
 41       42       41       42      
 42       43       42       43      
 43       44       43       44      
 44       45       44       45      
 45       46       45       46      
 46       47       46       47      
 47       48       47       48      
 48       49       48       49      
 49       50       49       50      
 50       51       50       51      
