TITLE = "NODEELEMENT"
VARIABLES = "X", "Y", "Z"
ZONE N=    1717, E=    1579, F=FEPOINT, ET=QUADRILATERAL
-1.702e+000  6.385e+000  9.112e+000
-1.353e+000  6.200e+000  8.257e+000
-1.001e+000  6.053e+000  7.397e+000
-6.477e-001  5.931e+000  6.532e+000
-3.017e-001  5.713e+000  5.686e+000
-9.182e-003  5.193e+000  4.970e+000
 2.069e-001 -7.750e-007  4.441e+000
 1.211e+000 -8.231e-008  4.453e+000
 2.213e+000  3.800e-007  4.423e+000
 3.215e+000  6.839e-007  4.358e+000
 4.214e+000  8.919e-007  4.267e+000
 5.211e+000  1.046e-006  4.155e+000
 6.207e+000  1.173e-006  4.030e+000
 7.201e+000  1.294e-006  3.898e+000
 8.195e+000  1.433e-006  3.762e+000
 9.189e+000  1.593e-006  3.623e+000
 1.018e+001  1.773e-006  3.479e+000
 1.117e+001  1.968e-006  3.331e+000
 1.217e+001  2.172e-006  3.176e+000
 1.316e+001  2.381e-006  3.012e+000
 1.414e+001  2.592e-006  2.836e+000
 1.513e+001  2.803e-006  2.646e+000
 1.611e+001  3.015e-006  2.447e+000
 1.709e+001  3.230e-006  2.243e+000
 1.808e+001  3.449e-006  2.039e+000
 1.906e+001  3.677e-006  1.840e+000
 2.004e+001  3.917e-006  1.649e+000
 2.103e+001  4.178e-006  1.468e+000
 7.359e+000  1.213e+000  4.004e+000
 8.361e+000  1.237e+000  3.841e+000
 6.344e+000  1.191e+000  4.138e+000
 9.352e+000  1.260e+000  3.666e+000
 5.321e+000  1.168e+000  4.243e+000
 1.034e+001  1.281e+000  3.502e+000
 2.202e+001  4.464e-006  1.300e+000
 1.132e+001  1.299e+000  3.363e+000
 4.292e+000  1.146e+000  4.325e+000
 1.231e+001  1.315e+000  3.243e+000
 3.262e+000  1.123e+000  4.388e+000
 1.329e+001  1.330e+000  3.127e+000
 2.301e+001  4.763e-006  1.143e+000
 2.236e+000  1.101e+000  4.431e+000
 1.217e+000  1.080e+000  4.452e+000
 1.427e+001  1.344e+000  3.001e+000
 1.525e+001  1.360e+000  2.858e+000
 2.400e+001  5.060e-006  9.922e-001
 1.622e+001  1.376e+000  2.701e+000
 1.720e+001  1.394e+000  2.538e+000
 2.500e+001  5.335e-006  8.446e-001
 2.053e-001  1.060e+000  4.445e+000
 1.817e+001  1.413e+000  2.374e+000
 2.599e+001  5.591e-006  7.049e-001
 1.914e+001  1.432e+000  2.210e+000
 2.012e+001  1.452e+000  2.048e+000
 2.699e+001  5.851e-006  5.850e-001
 2.109e+001  1.474e+000  1.889e+000
 2.799e+001  6.148e-006  4.974e-001
 2.207e+001  1.499e+000  1.735e+000
 2.305e+001  1.524e+000  1.586e+000
 2.899e+001  6.503e-006  4.494e-001
 2.403e+001  1.548e+000  1.447e+000
 2.999e+001  6.898e-006  4.286e-001
 2.501e+001  1.570e+000  1.319e+000
 3.099e+001  7.297e-006  4.177e-001
 2.600e+001  1.591e+000  1.202e+000
 2.698e+001  1.614e+000  1.094e+000
 3.200e+001  7.663e-006  3.997e-001
 2.797e+001  1.641e+000  9.951e-001
 3.300e+001  7.986e-006  3.698e-001
 2.896e+001  1.673e+000  9.028e-001
 3.400e+001  8.285e-006  3.335e-001
 2.995e+001  1.708e+000  8.191e-001
 3.094e+001  1.741e+000  7.453e-001
 3.501e+001  8.583e-006  2.964e-001
 3.193e+001  1.767e+000  6.830e-001
 3.601e+001  8.899e-006  2.629e-001
 3.292e+001  1.784e+000  6.319e-001
 3.392e+001  1.797e+000  5.904e-001
 3.701e+001  9.226e-006  2.322e-001
 3.491e+001  1.809e+000  5.561e-001
 3.590e+001  1.821e+000  5.269e-001
 3.801e+001  9.554e-006  2.028e-001
 3.690e+001  1.834e+000  5.025e-001
 3.902e+001  9.869e-006  1.730e-001
 3.789e+001  1.845e+000  4.834e-001
 4.002e+001  1.018e-005  1.424e-001
 3.888e+001  1.855e+000  4.702e-001
 4.102e+001  1.049e-005  1.111e-001
 3.988e+001  1.864e+000  4.607e-001
 4.202e+001  1.082e-005  7.952e-002
 4.087e+001  1.873e+000  4.502e-001
 4.187e+001  1.883e+000  4.337e-001
 4.303e+001  1.119e-005  4.853e-002
 4.286e+001  1.894e+000  4.083e-001
 4.403e+001  1.159e-005  2.138e-002
 1.232e+001  2.614e+000  3.410e+000
 1.036e+001  2.549e+000  3.610e+000
 1.134e+001  2.584e+000  3.501e+000
 1.330e+001  2.643e+000  3.324e+000
 1.427e+001  2.673e+000  3.230e+000
 1.524e+001  2.705e+000  3.121e+000
 4.385e+001  1.908e+000  3.790e-001
 4.503e+001  1.197e-005  1.590e-003
 1.621e+001  2.738e+000  3.003e+000
 9.373e+000  2.512e+000  3.747e+000
 1.718e+001  2.772e+000  2.879e+000
 8.379e+000  2.472e+000  3.897e+000
 1.815e+001  2.807e+000  2.756e+000
 4.485e+001  1.921e+000  3.527e-001
 1.911e+001  2.842e+000  2.633e+000
 4.604e+001  1.234e-005 -7.585e-003
 7.372e+000  2.430e+000  4.043e+000
 2.008e+001  2.878e+000  2.510e+000
 2.105e+001  2.916e+000  2.387e+000
 4.584e+001  1.934e+000  3.356e-001
 6.350e+000  2.385e+000  4.166e+000
 2.203e+001  2.958e+000  2.263e+000
 4.704e+001  1.268e-005 -7.524e-003
 5.318e+000  2.338e+000  4.264e+000
 2.300e+001  3.001e+000  2.139e+000
 4.281e+000  2.291e+000  4.340e+000
 2.217e+000  2.200e+000  4.435e+000
 3.245e+000  2.244e+000  4.397e+000
 2.397e+001  3.046e+000  2.017e+000
 4.684e+001  1.944e+000  3.286e-001
 4.804e+001  1.300e-005 -2.853e-003
 2.494e+001  3.092e+000  1.899e+000
 1.202e+000  2.158e+000  4.452e+000
 2.592e+001  3.138e+000  1.788e+000
 4.783e+001  1.952e+000  3.274e-001
 2.689e+001  3.185e+000  1.685e+000
 4.905e+001  1.332e-005  1.722e-003
 2.787e+001  3.232e+000  1.591e+000
 2.885e+001  3.280e+000  1.508e+000
 4.883e+001  1.960e+000  3.277e-001
 2.052e-001  2.120e+000  4.445e+000
 5.005e+001  1.366e-005  3.102e-003
 2.984e+001  3.327e+000  1.433e+000
 3.082e+001  3.373e+000  1.365e+000
 4.982e+001  1.967e+000  3.259e-001
 5.105e+001  1.400e-005  2.152e-003
 3.180e+001  3.417e+000  1.300e+000
 3.278e+001  3.458e+000  1.236e+000
 5.082e+001  1.974e+000  3.222e-001
 3.377e+001  3.497e+000  1.176e+000
 5.206e+001  1.434e-005  4.188e-004
 3.475e+001  3.536e+000  1.118e+000
 5.181e+001  1.981e+000  3.181e-001
 3.573e+001  3.573e+000  1.065e+000
 5.306e+001  1.468e-005 -6.579e-004
 3.672e+001  3.608e+000  1.015e+000
 5.281e+001  1.986e+000  3.149e-001
 5.406e+001  1.501e-005 -7.766e-004
 3.771e+001  3.642e+000  9.689e-001
 3.869e+001  3.673e+000  9.265e-001
 5.380e+001  1.990e+000  3.132e-001
 5.507e+001  1.534e-005 -3.917e-004
 3.968e+001  3.702e+000  8.883e-001
 4.067e+001  3.728e+000  8.551e-001
 5.480e+001  1.994e+000  3.126e-001
 5.607e+001  1.566e-005  3.218e-005
 4.165e+001  3.751e+000  8.284e-001
 5.579e+001  1.996e+000  3.125e-001
 4.264e+001  3.772e+000  8.089e-001
 5.707e+001  1.598e-005  1.905e-004
 4.363e+001  3.792e+000  7.954e-001
 5.679e+001  1.997e+000  3.125e-001
 5.808e+001  1.630e-005  1.507e-004
 4.462e+001  3.812e+000  7.851e-001
 5.778e+001  1.998e+000  3.125e-001
 4.561e+001  3.833e+000  7.753e-001
 5.908e+001  1.662e-005  3.574e-005
 4.660e+001  3.853e+000  7.645e-001
 5.878e+001  1.998e+000  3.125e-001
 6.008e+001  1.693e-005 -3.833e-005
 4.759e+001  3.872e+000  7.536e-001
 5.978e+001  1.997e+000  3.125e-001
 4.858e+001  3.890e+000  7.438e-001
 6.109e+001  1.724e-005 -4.754e-005
 4.956e+001  3.906e+000  7.362e-001
 6.077e+001  1.996e+000  3.124e-001
 6.209e+001  1.754e-005 -2.277e-005
 5.055e+001  3.920e+000  7.310e-001
 6.177e+001  1.994e+000  3.123e-001
 5.154e+001  3.932e+000  7.273e-001
 6.309e+001  1.784e-005  4.175e-006
 5.253e+001  3.942e+000  7.245e-001
 6.276e+001  1.991e+000  3.123e-001
 6.410e+001  1.814e-005  1.306e-005
 5.352e+001  3.950e+000  7.223e-001
 6.376e+001  1.988e+000  3.123e-001
 5.451e+001  3.957e+000  7.206e-001
 6.510e+001  1.843e-005  9.729e-006
 6.475e+001  1.983e+000  3.126e-001
 5.550e+001  3.961e+000  7.195e-001
 6.610e+001  1.871e-005  1.877e-006
 5.649e+001  3.964e+000  7.193e-001
 6.575e+001  1.979e+000  3.131e-001
 5.748e+001  3.966e+000  7.200e-001
 6.711e+001  1.899e-005 -3.395e-006
 6.674e+001  1.973e+000  3.141e-001
 5.847e+001  3.965e+000  7.214e-001
 6.811e+001  1.926e-005 -4.199e-006
 5.946e+001  3.963e+000  7.235e-001
 6.774e+001  1.967e+000  3.156e-001
 6.045e+001  3.959e+000  7.262e-001
 6.911e+001  1.953e-005 -1.874e-006
 1.508e+001  4.038e+000  3.414e+000
 1.605e+001  4.085e+000  3.341e+000
 6.144e+001  3.953e+000  7.297e-001
 6.873e+001  1.961e+000  3.178e-001
 1.412e+001  3.992e+000  3.484e+000
 1.702e+001  4.133e+000  3.264e+000
 1.799e+001  4.182e+000  3.182e+000
 1.315e+001  3.947e+000  3.552e+000
 1.895e+001  4.233e+000  3.094e+000
 1.217e+001  3.902e+000  3.620e+000
 1.992e+001  4.286e+000  3.004e+000
 6.243e+001  3.946e+000  7.341e-001
 7.012e+001  1.979e-005 -3.791e-007
 2.089e+001  4.340e+000  2.914e+000
 1.120e+001  3.857e+000  3.686e+000
 6.973e+001  1.954e+000  3.207e-001
 2.186e+001  4.395e+000  2.827e+000
 6.342e+001  3.937e+000  7.396e-001
 2.283e+001  4.452e+000  2.741e+000
 1.022e+001  3.809e+000  3.752e+000
 2.380e+001  4.510e+000  2.657e+000
 7.112e+001  2.005e-005  6.539e-007
 2.477e+001  4.570e+000  2.571e+000
 9.229e+000  3.758e+000  3.820e+000
 6.441e+001  3.927e+000  7.461e-001
 2.574e+001  4.632e+000  2.485e+000
 7.073e+001  1.946e+000  3.243e-001
 8.232e+000  3.699e+000  3.897e+000
 7.225e+000  3.635e+000  3.985e+000
 2.671e+001  4.696e+000  2.402e+000
 6.540e+001  3.916e+000  7.536e-001
 6.211e+000  3.567e+000  4.087e+000
 2.768e+001  4.761e+000  2.323e+000
 7.212e+001  2.031e-005  7.074e-007
 5.193e+000  3.497e+000  4.194e+000
 4.173e+000  3.427e+000  4.295e+000
 2.866e+001  4.825e+000  2.253e+000
 7.172e+001  1.938e+000  3.290e-001
 6.639e+001  3.903e+000  7.623e-001
 3.157e+000  3.359e+000  4.379e+000
 2.964e+001  4.887e+000  2.189e+000
 3.061e+001  4.948e+000  2.129e+000
 2.149e+000  3.293e+000  4.439e+000
 3.159e+001  5.006e+000  2.072e+000
 6.738e+001  3.888e+000  7.721e-001
 7.312e+001  2.056e-005 -2.667e-007
 3.257e+001  5.063e+000  2.017e+000
 3.355e+001  5.118e+000  1.963e+000
 7.272e+001  1.929e+000  3.347e-001
 1.158e+000  3.233e+000  4.466e+000
 3.453e+001  5.172e+000  1.912e+000
 6.837e+001  3.873e+000  7.832e-001
 3.551e+001  5.225e+000  1.863e+000
 3.649e+001  5.276e+000  1.816e+000
 6.936e+001  3.856e+000  7.958e-001
 7.413e+001  2.080e-005 -3.033e-007
 3.747e+001  5.325e+000  1.772e+000
 7.371e+001  1.919e+000  3.418e-001
 7.035e+001  3.837e+000  8.100e-001
 3.845e+001  5.373e+000  1.730e+000
 3.943e+001  5.419e+000  1.690e+000
 2.000e-001  3.181e+000  4.458e+000
 7.134e+001  3.818e+000  8.261e-001
 7.513e+001  2.103e-005 -1.399e-006
 4.041e+001  5.463e+000  1.653e+000
 7.471e+001  1.908e+000  3.504e-001
 4.140e+001  5.506e+000  1.618e+000
 7.233e+001  3.796e+000  8.440e-001
 4.238e+001  5.548e+000  1.587e+000
 7.613e+001  2.125e-005 -4.827e-007
 4.336e+001  5.588e+000  1.558e+000
 7.332e+001  3.773e+000  8.640e-001
 7.570e+001  1.896e+000  3.606e-001
 4.435e+001  5.627e+000  1.533e+000
 7.431e+001  3.748e+000  8.861e-001
 7.714e+001  2.146e-005 -3.717e-007
 4.533e+001  5.664e+000  1.511e+000
 7.670e+001  1.883e+000  3.726e-001
 4.632e+001  5.699e+000  1.492e+000
 4.730e+001  5.730e+000  1.475e+000
 7.529e+001  3.721e+000  9.103e-001
 7.814e+001  2.166e-005 -2.108e-008
 7.769e+001  1.869e+000  3.864e-001
 4.829e+001  5.757e+000  1.460e+000
 4.927e+001  5.783e+000  1.448e+000
 7.628e+001  3.692e+000  9.366e-001
 7.914e+001  2.186e-005  6.305e-007
 5.026e+001  5.805e+000  1.438e+000
 7.869e+001  1.854e+000  4.020e-001
 5.125e+001  5.824e+000  1.430e+000
 7.727e+001  3.661e+000  9.650e-001
 5.223e+001  5.840e+000  1.424e+000
 8.015e+001  2.204e-005 -6.399e-007
 7.968e+001  1.837e+000  4.193e-001
 5.322e+001  5.853e+000  1.419e+000
 7.826e+001  3.627e+000  9.954e-001
 5.421e+001  5.863e+000  1.416e+000
 8.115e+001  2.222e-005 -2.245e-006
 8.068e+001  1.819e+000  4.381e-001
 5.519e+001  5.870e+000  1.414e+000
 7.925e+001  3.591e+000  1.028e+000
 5.618e+001  5.874e+000  1.414e+000
 8.215e+001  2.238e-005 -3.080e-006
 5.716e+001  5.876e+000  1.415e+000
 8.167e+001  1.799e+000  4.583e-001
 8.023e+001  3.553e+000  1.062e+000
 5.815e+001  5.874e+000  1.417e+000
 8.316e+001  2.254e-005 -2.810e-006
 8.266e+001  1.778e+000  4.796e-001
 5.914e+001  5.870e+000  1.422e+000
 8.122e+001  3.513e+000  1.097e+000
 6.012e+001  5.862e+000  1.428e+000
 8.416e+001  2.268e-005  6.216e-007
 8.220e+001  3.470e+000  1.133e+000
 8.366e+001  1.756e+000  5.019e-001
 6.111e+001  5.851e+000  1.436e+000
 6.210e+001  5.838e+000  1.446e+000
 8.516e+001  2.282e-005  6.428e-006
 8.319e+001  3.425e+000  1.170e+000
 8.465e+001  1.732e+000  5.250e-001
 6.309e+001  5.821e+000  1.458e+000
 6.407e+001  5.803e+000  1.472e+000
 8.417e+001  3.377e+000  1.208e+000
 8.617e+001  2.294e-005  7.496e-006
 8.564e+001  1.706e+000  5.484e-001
 6.506e+001  5.781e+000  1.487e+000
 6.604e+001  5.757e+000  1.505e+000
 8.516e+001  3.327e+000  1.246e+000
 8.717e+001  2.305e-005  7.725e-007
 8.664e+001  1.679e+000  5.719e-001
 6.703e+001  5.731e+000  1.526e+000
 6.802e+001  5.702e+000  1.548e+000
 8.614e+001  3.274e+000  1.285e+000
 8.817e+001  2.314e-005 -1.680e-005
 8.763e+001  1.651e+000  5.951e-001
 6.900e+001  5.671e+000  1.573e+000
 6.999e+001  5.638e+000  1.599e+000
 8.713e+001  3.219e+000  1.323e+000
 8.918e+001  2.322e-005 -3.248e-005
 8.862e+001  1.621e+000  6.179e-001
 7.097e+001  5.602e+000  1.628e+000
 8.811e+001  3.162e+000  1.361e+000
 7.196e+001  5.564e+000  1.659e+000
 9.018e+001  2.329e-005 -2.546e-005
 8.961e+001  1.591e+000  6.401e-001
 7.294e+001  5.523e+000  1.693e+000
 8.909e+001  3.102e+000  1.398e+000
 7.392e+001  5.479e+000  1.728e+000
 9.118e+001  2.335e-005  2.340e-005
 9.060e+001  1.559e+000  6.620e-001
 7.491e+001  5.432e+000  1.764e+000
 9.008e+001  3.040e+000  1.435e+000
 7.589e+001  5.382e+000  1.803e+000
 9.219e+001  2.340e-005  9.426e-005
 9.160e+001  1.526e+000  6.834e-001
 7.687e+001  5.330e+000  1.843e+000
 9.106e+001  2.976e+000  1.472e+000
 9.319e+001  2.343e-005  1.137e-004
 7.785e+001  5.274e+000  1.884e+000
 9.259e+001  1.492e+000  7.044e-001
 7.884e+001  5.215e+000  1.926e+000
 9.204e+001  2.909e+000  1.509e+000
 9.358e+001  1.457e+000  7.252e-001
 9.419e+001  2.344e-005  5.130e-006
 7.982e+001  5.154e+000  1.969e+000
 9.302e+001  2.840e+000  1.545e+000
 8.080e+001  5.090e+000  2.012e+000
 9.457e+001  1.421e+000  7.459e-001
 9.520e+001  2.344e-005 -2.541e-004
 8.178e+001  5.024e+000  2.055e+000
 9.400e+001  2.768e+000  1.580e+000
 8.275e+001  4.956e+000  2.098e+000
 9.556e+001  1.383e+000  7.665e-001
 9.620e+001  2.343e-005 -4.503e-004
 1.580e+001  5.373e+000  3.882e+000
 1.677e+001  5.432e+000  3.845e+000
 1.774e+001  5.490e+000  3.808e+000
 1.871e+001  5.546e+000  3.771e+000
 1.968e+001  5.601e+000  3.734e+000
 8.373e+001  4.884e+000  2.140e+000
 1.483e+001  5.314e+000  3.917e+000
 2.065e+001  5.656e+000  3.697e+000
 1.386e+001  5.258e+000  3.950e+000
 2.162e+001  5.712e+000  3.659e+000
 9.498e+001  2.695e+000  1.616e+000
 2.260e+001  5.769e+000  3.622e+000
 1.289e+001  5.205e+000  3.978e+000
 8.471e+001  4.810e+000  2.182e+000
 1.192e+001  5.153e+000  4.005e+000
 2.357e+001  5.826e+000  3.585e+000
 9.655e+001  1.344e+000  7.873e-001
 9.720e+001  2.345e-005 -2.953e-004
 1.095e+001  5.100e+000  4.031e+000
 2.454e+001  5.883e+000  3.549e+000
 2.551e+001  5.939e+000  3.512e+000
 8.569e+001  4.733e+000  2.224e+000
 9.966e+000  5.046e+000  4.061e+000
 9.596e+001  2.619e+000  1.650e+000
 2.649e+001  5.994e+000  3.478e+000
 8.982e+000  4.987e+000  4.097e+000
 2.746e+001  6.050e+000  3.444e+000
 8.667e+001  4.653e+000  2.265e+000
 7.992e+000  4.920e+000  4.140e+000
 2.843e+001  6.106e+000  3.414e+000
 5.007e+000  4.658e+000  4.346e+000
 6.002e+000  4.753e+000  4.266e+000
 6.998e+000  4.842e+000  4.196e+000
 2.941e+001  6.163e+000  3.385e+000
 4.014e+000  4.561e+000  4.426e+000
 3.039e+001  6.219e+000  3.357e+000
 3.136e+001  6.274e+000  3.330e+000
 9.754e+001  1.303e+000  8.084e-001
 3.234e+001  6.329e+000  3.303e+000
 3.331e+001  6.382e+000  3.277e+000
 8.765e+001  4.570e+000  2.306e+000
 9.821e+001  2.350e-005  4.782e-004
 3.025e+000  4.467e+000  4.496e+000
 3.429e+001  6.435e+000  3.251e+000
 3.527e+001  6.486e+000  3.226e+000
 9.694e+001  2.541e+000  1.684e+000
 2.043e+000  4.377e+000  4.548e+000
 3.624e+001  6.537e+000  3.203e+000
 8.862e+001  4.485e+000  2.346e+000
 3.722e+001  6.586e+000  3.181e+000
 3.820e+001  6.633e+000  3.161e+000
 8.960e+001  4.396e+000  2.385e+000
 1.077e+000  4.295e+000  4.577e+000
 3.918e+001  6.679e+000  3.142e+000
 9.853e+001  1.261e+000  8.298e-001
 4.016e+001  6.724e+000  3.125e+000
 9.921e+001  2.357e-005  1.489e-003
 9.057e+001  4.305e+000  2.424e+000
 4.114e+001  6.766e+000  3.109e+000
 9.792e+001  2.461e+000  1.718e+000
 4.211e+001  6.807e+000  3.095e+000
 9.155e+001  4.210e+000  2.463e+000
 4.309e+001  6.847e+000  3.083e+000
 9.252e+001  4.112e+000  2.501e+000
 1.528e-001  4.233e+000  4.574e+000
 4.407e+001  6.885e+000  3.073e+000
 9.350e+001  4.011e+000  2.539e+000
 9.952e+001  1.218e+000  8.510e-001
 9.447e+001  3.907e+000  2.576e+000
 1.002e+002  2.357e-005  1.679e-003
 4.506e+001  6.920e+000  3.064e+000
 9.890e+001  2.380e+000  1.750e+000
 9.544e+001  3.801e+000  2.612e+000
 4.604e+001  6.954e+000  3.057e+000
 4.702e+001  6.984e+000  3.051e+000
 9.642e+001  3.691e+000  2.648e+000
 4.800e+001  7.012e+000  3.046e+000
 1.005e+002  1.172e+000  8.715e-001
 4.898e+001  7.038e+000  3.043e+000
 1.012e+002  2.340e-005 -5.518e-005
 9.739e+001  3.578e+000  2.683e+000
 9.988e+001  2.296e+000  1.781e+000
 4.996e+001  7.060e+000  3.041e+000
 5.094e+001  7.080e+000  3.039e+000
 5.193e+001  7.097e+000  3.038e+000
 9.836e+001  3.462e+000  2.717e+000
 5.291e+001  7.110e+000  3.038e+000
 1.015e+002  1.126e+000  8.909e-001
 1.022e+002  2.300e-005 -3.809e-003
 5.389e+001  7.121e+000  3.038e+000
 1.009e+002  2.210e+000  1.812e+000
 5.487e+001  7.129e+000  3.038e+000
 5.585e+001  7.133e+000  3.039e+000
 9.933e+001  3.344e+000  2.751e+000
 5.684e+001  7.135e+000  3.039e+000
 5.782e+001  7.134e+000  3.040e+000
 1.025e+002  1.080e+000  9.098e-001
 5.880e+001  7.130e+000  3.042e+000
 1.018e+002  2.123e+000  1.842e+000
 1.032e+002  2.241e-005 -6.288e-003
 5.978e+001  7.123e+000  3.043e+000
 1.003e+002  3.223e+000  2.783e+000
 6.076e+001  7.113e+000  3.046e+000
 6.175e+001  7.100e+000  3.049e+000
 6.273e+001  7.084e+000  3.054e+000
 1.035e+002  1.036e+000  9.293e-001
 6.371e+001  7.065e+000  3.060e+000
 1.028e+002  2.036e+000  1.872e+000
 1.042e+002  2.169e-005 -3.341e-003
 6.469e+001  7.043e+000  3.066e+000
 1.013e+002  3.100e+000  2.815e+000
 6.567e+001  7.019e+000  3.075e+000
 6.665e+001  6.992e+000  3.084e+000
 6.764e+001  6.962e+000  3.096e+000
 1.045e+002  9.942e-001  9.504e-001
 6.862e+001  6.930e+000  3.108e+000
 1.022e+002  2.975e+000  2.847e+000
 1.038e+002  1.948e+000  1.904e+000
 1.052e+002  2.093e-005  8.939e-003
 6.960e+001  6.894e+000  3.122e+000
 7.058e+001  6.856e+000  3.138e+000
 7.156e+001  6.815e+000  3.154e+000
 1.032e+002  2.849e+000  2.879e+000
 1.055e+002  9.559e-001  9.737e-001
 1.048e+002  1.859e+000  1.937e+000
 7.254e+001  6.772e+000  3.172e+000
 1.062e+002  2.022e-005  3.085e-002
 7.352e+001  6.725e+000  3.191e+000
 7.450e+001  6.676e+000  3.211e+000
 1.042e+002  2.721e+000  2.911e+000
 1.064e+002  9.201e-001  9.994e-001
 7.548e+001  6.624e+000  3.232e+000
 1.057e+002  1.769e+000  1.973e+000
 1.072e+002  1.967e-005  5.975e-002
 7.645e+001  6.568e+000  3.254e+000
 7.743e+001  6.510e+000  3.277e+000
 1.051e+002  2.592e+000  2.944e+000
 1.067e+002  1.679e+000  2.009e+000
 1.074e+002  8.850e-001  1.028e+000
 7.841e+001  6.449e+000  3.300e+000
 1.082e+002  1.940e-005  9.292e-002
 7.939e+001  6.384e+000  3.324e+000
 1.061e+002  2.462e+000  2.976e+000
 8.036e+001  6.316e+000  3.349e+000
 8.134e+001  6.245e+000  3.373e+000
 1.077e+002  1.588e+000  2.045e+000
 1.084e+002  8.477e-001  1.060e+000
 8.232e+001  6.170e+000  3.398e+000
 1.092e+002  1.948e-005  1.282e-001
 1.071e+002  2.332e+000  3.008e+000
 8.329e+001  6.091e+000  3.423e+000
 8.427e+001  6.008e+000  3.449e+000
 1.087e+002  1.496e+000  2.082e+000
 1.094e+002  8.066e-001  1.096e+000
 8.524e+001  5.921e+000  3.474e+000
 1.080e+002  2.200e+000  3.038e+000
 1.102e+002  1.973e-005  1.648e-001
 8.622e+001  5.830e+000  3.500e+000
 8.719e+001  5.734e+000  3.525e+000
 1.096e+002  1.402e+000  2.118e+000
 1.104e+002  7.613e-001  1.134e+000
 8.816e+001  5.634e+000  3.551e+000
 8.914e+001  5.530e+000  3.577e+000
 1.090e+002  2.067e+000  3.068e+000
 1.112e+002  1.995e-005  2.022e-001
 9.011e+001  5.421e+000  3.602e+000
 9.108e+001  5.308e+000  3.628e+000
 1.106e+002  1.307e+000  2.153e+000
 1.114e+002  7.123e-001  1.173e+000
 9.205e+001  5.191e+000  3.653e+000
 1.100e+002  1.933e+000  3.097e+000
 9.302e+001  5.070e+000  3.678e+000
 1.122e+002  1.997e-005  2.399e-001
 9.399e+001  4.945e+000  3.703e+000
 9.496e+001  4.817e+000  3.727e+000
 1.116e+002  1.211e+000  2.188e+000
 1.124e+002  6.605e-001  1.213e+000
 9.592e+001  4.684e+000  3.751e+000
 1.109e+002  1.798e+000  3.125e+000
 9.689e+001  4.548e+000  3.774e+000
 1.133e+002  1.985e-005  2.773e-001
 9.786e+001  4.409e+000  3.797e+000
 9.882e+001  4.267e+000  3.819e+000
 1.126e+002  1.114e+000  2.222e+000
 1.134e+002  6.058e-001  1.254e+000
 9.979e+001  4.121e+000  3.840e+000
 1.119e+002  1.662e+000  3.152e+000
 1.008e+002  3.973e+000  3.861e+000
 1.085e+002  2.714e+000  4.016e+000
 1.143e+002  1.981e-005  3.140e-001
 1.017e+002  3.822e+000  3.882e+000
 1.094e+002  2.551e+000  4.033e+000
 1.075e+002  2.877e+000  3.999e+000
 1.027e+002  3.669e+000  3.902e+000
 1.065e+002  3.038e+000  3.981e+000
 1.135e+002  1.017e+000  2.256e+000
 1.036e+002  3.514e+000  3.922e+000
 1.046e+002  3.357e+000  3.942e+000
 1.056e+002  3.199e+000  3.962e+000
 1.104e+002  2.386e+000  4.049e+000
 1.129e+002  1.527e+000  3.180e+000
 1.143e+002  5.479e-001  1.295e+000
 1.153e+002  2.008e-005  3.492e-001
 1.113e+002  2.220e+000  4.064e+000
 1.145e+002  9.212e-001  2.294e+000
 1.138e+002  1.394e+000  3.210e+000
 1.153e+002  4.864e-001  1.338e+000
 1.123e+002  2.054e+000  4.080e+000
 1.163e+002  2.065e-005  3.829e-001
 1.155e+002  8.284e-001  2.338e+000
 1.148e+002  1.264e+000  3.246e+000
 1.133e+002  1.888e+000  4.097e+000
 1.163e+002  4.222e-001  1.387e+000
 1.173e+002  2.108e-005  4.156e-001
 1.142e+002  1.725e+000  4.118e+000
 1.165e+002  7.396e-001  2.398e+000
 1.158e+002  1.140e+000  3.294e+000
 1.173e+002  3.586e-001  1.450e+000
 1.183e+002  2.090e-005  4.481e-001
 1.152e+002  1.566e+000  4.144e+000
 1.174e+002  6.563e-001  2.490e+000
 1.167e+002  1.022e+000  3.363e+000
 1.183e+002  3.020e-001  1.544e+000
 1.161e+002  1.411e+000  4.180e+000
 1.193e+002  1.974e-005  4.936e-001
 1.183e+002  5.817e-001  2.638e+000
 1.176e+002  9.130e-001  3.467e+000
 1.192e+002  2.620e-001  1.715e+000
 1.170e+002  1.261e+000  4.233e+000
 1.203e+002  1.769e-005  6.380e-001
 1.192e+002  5.184e-001  2.863e+000
 1.185e+002  8.143e-001  3.614e+000
 1.201e+002  2.399e-001  2.009e+000
 1.180e+002  1.115e+000  4.306e+000
 1.212e+002  1.497e-005  9.894e-001
 1.200e+002  4.687e-001  3.173e+000
 1.193e+002  7.258e-001  3.809e+000
 1.209e+002  2.305e-001  2.449e+000
 1.189e+002  9.745e-001  4.398e+000
 1.220e+002  1.203e-005  1.599e+000
 1.201e+002  6.490e-001  4.042e+000
 1.207e+002  4.349e-001  3.554e+000
 1.216e+002  2.272e-001  3.004e+000
 1.226e+002  9.372e-006  2.380e+000
 1.197e+002  8.394e-001  4.501e+000
 1.207e+002  5.942e-001  4.300e+000
 1.213e+002  4.193e-001  3.986e+000
 1.222e+002  2.335e-001  3.626e+000
 1.232e+002  7.195e-006  3.228e+000
 1.204e+002  7.124e-001  4.588e+000
 1.211e+002  5.920e-001  4.580e+000
 1.218e+002  4.269e-001  4.457e+000
 1.227e+002  2.538e-001  4.286e+000
 1.237e+002  5.573e-006  4.099e+000
 9.616e-001  5.292e+000  4.969e+000
 1.932e+000  5.399e+000  4.969e+000
 2.902e+000  5.500e+000  4.970e+000
 3.872e+000  5.593e+000  4.970e+000
 4.844e+000  5.679e+000  4.970e+000
 5.816e+000  5.759e+000  4.970e+000
 6.789e+000  5.831e+000  4.970e+000
 7.762e+000  5.897e+000  4.970e+000
 8.736e+000  5.957e+000  4.970e+000
 9.710e+000  6.013e+000  4.970e+000
 1.068e+001  6.066e+000  4.970e+000
 1.166e+001  6.116e+000  4.970e+000
 1.263e+001  6.165e+000  4.970e+000
 1.361e+001  6.213e+000  4.970e+000
 1.458e+001  6.262e+000  4.970e+000
 1.555e+001  6.310e+000  4.970e+000
 1.653e+001  6.358e+000  4.970e+000
 1.750e+001  6.406e+000  4.970e+000
 1.848e+001  6.452e+000  4.970e+000
 1.945e+001  6.498e+000  4.970e+000
 2.043e+001  6.544e+000  4.970e+000
 2.140e+001  6.589e+000  4.970e+000
 2.238e+001  6.633e+000  4.970e+000
 2.335e+001  6.677e+000  4.970e+000
 2.432e+001  6.720e+000  4.970e+000
 2.530e+001  6.762e+000  4.970e+000
 2.627e+001  6.803e+000  4.970e+000
 2.725e+001  6.843e+000  4.970e+000
 2.822e+001  6.882e+000  4.970e+000
 2.920e+001  6.920e+000  4.970e+000
 3.017e+001  6.956e+000  4.970e+000
 3.115e+001  6.992e+000  4.970e+000
 3.212e+001  7.026e+000  4.970e+000
 3.310e+001  7.060e+000  4.970e+000
 3.407e+001  7.092e+000  4.970e+000
 3.505e+001  7.124e+000  4.970e+000
 3.602e+001  7.155e+000  4.970e+000
 3.700e+001  7.184e+000  4.970e+000
 3.797e+001  7.212e+000  4.970e+000
 3.895e+001  7.238e+000  4.970e+000
 3.992e+001  7.263e+000  4.970e+000
 4.090e+001  7.287e+000  4.970e+000
 4.187e+001  7.308e+000  4.970e+000
 4.285e+001  7.329e+000  4.970e+000
 4.382e+001  7.347e+000  4.970e+000
 4.480e+001  7.365e+000  4.970e+000
 4.577e+001  7.381e+000  4.970e+000
 4.675e+001  7.395e+000  4.970e+000
 4.772e+001  7.408e+000  4.970e+000
 4.870e+001  7.420e+000  4.970e+000
 4.967e+001  7.431e+000  4.970e+000
 5.065e+001  7.440e+000  4.970e+000
 5.162e+001  7.447e+000  4.970e+000
 5.260e+001  7.454e+000  4.970e+000
 5.358e+001  7.458e+000  4.970e+000
 5.455e+001  7.461e+000  4.970e+000
 5.553e+001  7.464e+000  4.970e+000
 5.650e+001  7.465e+000  4.970e+000
 5.748e+001  7.466e+000  4.970e+000
 5.845e+001  7.466e+000  4.970e+000
 5.943e+001  7.466e+000  4.970e+000
 6.040e+001  7.466e+000  4.970e+000
 6.138e+001  7.466e+000  4.970e+000
 6.235e+001  7.465e+000  4.970e+000
 6.333e+001  7.464e+000  4.970e+000
 6.431e+001  7.462e+000  4.970e+000
 6.528e+001  7.458e+000  4.970e+000
 6.626e+001  7.453e+000  4.970e+000
 6.723e+001  7.446e+000  4.970e+000
 6.821e+001  7.437e+000  4.970e+000
 6.918e+001  7.426e+000  4.970e+000
 7.016e+001  7.412e+000  4.970e+000
 7.113e+001  7.395e+000  4.970e+000
 7.211e+001  7.375e+000  4.970e+000
 7.308e+001  7.353e+000  4.970e+000
 7.406e+001  7.326e+000  4.970e+000
 7.503e+001  7.296e+000  4.970e+000
 7.601e+001  7.262e+000  4.970e+000
 7.698e+001  7.224e+000  4.970e+000
 7.796e+001  7.181e+000  4.970e+000
 7.893e+001  7.134e+000  4.970e+000
 7.991e+001  7.083e+000  4.970e+000
 8.088e+001  7.027e+000  4.970e+000
 8.185e+001  6.965e+000  4.970e+000
 8.283e+001  6.899e+000  4.970e+000
 8.380e+001  6.827e+000  4.970e+000
 8.477e+001  6.749e+000  4.970e+000
 8.574e+001  6.665e+000  4.970e+000
 8.671e+001  6.576e+000  4.970e+000
 8.769e+001  6.480e+000  4.970e+000
 8.866e+001  6.379e+000  4.970e+000
 8.963e+001  6.271e+000  4.970e+000
 9.059e+001  6.158e+000  4.970e+000
 9.156e+001  6.040e+000  4.970e+000
 9.253e+001  5.915e+000  4.970e+000
 9.350e+001  5.786e+000  4.970e+000
 9.446e+001  5.652e+000  4.970e+000
 9.543e+001  5.512e+000  4.970e+000
 9.639e+001  5.368e+000  4.970e+000
 9.736e+001  5.219e+000  4.970e+000
 9.832e+001  5.066e+000  4.970e+000
 9.928e+001  4.909e+000  4.970e+000
 1.002e+002  4.748e+000  4.970e+000
 1.012e+002  4.584e+000  4.970e+000
 1.022e+002  4.416e+000  4.970e+000
 1.031e+002  4.245e+000  4.970e+000
 1.041e+002  4.071e+000  4.970e+000
 1.050e+002  3.894e+000  4.970e+000
 1.060e+002  3.713e+000  4.970e+000
 1.070e+002  3.531e+000  4.970e+000
 1.079e+002  3.346e+000  4.970e+000
 1.089e+002  3.160e+000  4.970e+000
 1.098e+002  2.971e+000  4.970e+000
 1.108e+002  2.781e+000  4.970e+000
 1.117e+002  2.589e+000  4.970e+000
 1.127e+002  2.396e+000  4.970e+000
 1.137e+002  2.202e+000  4.970e+000
 1.146e+002  2.009e+000  4.971e+000
 1.156e+002  1.815e+000  4.970e+000
 1.165e+002  1.621e+000  4.970e+000
 1.175e+002  1.425e+000  4.970e+000
 1.184e+002  1.228e+000  4.970e+000
 1.194e+002  1.028e+000  4.970e+000
 1.203e+002  8.276e-001  4.970e+000
 1.213e+002  6.320e-001  4.970e+000
 1.223e+002  4.506e-001  4.970e+000
 1.232e+002  2.844e-001  4.970e+000
 1.242e+002  4.574e-006  4.970e+000
 1.247e+002  4.939e-007  5.910e+000
 1.254e+002  0.000e+000  6.823e+000
 1.260e+002  0.000e+000  7.712e+000
 1.274e+002  5.105e-001  1.069e+001
 1.266e+002  9.725e-001  1.068e+001
 1.256e+002  1.338e+000  1.067e+001
 1.247e+002  1.596e+000  1.066e+001
 1.237e+002  1.894e+000  1.064e+001
 1.228e+002  2.205e+000  1.063e+001
 1.218e+002  2.482e+000  1.062e+001
 1.208e+002  2.692e+000  1.061e+001
 1.198e+002  2.861e+000  1.060e+001
 1.188e+002  3.033e+000  1.058e+001
 1.179e+002  3.247e+000  1.057e+001
 1.169e+002  3.506e+000  1.056e+001
 1.159e+002  3.783e+000  1.055e+001
 1.150e+002  4.053e+000  1.054e+001
 1.140e+002  4.295e+000  1.052e+001
 1.130e+002  4.513e+000  1.051e+001
 1.121e+002  4.718e+000  1.050e+001
 1.111e+002  4.919e+000  1.049e+001
 1.101e+002  5.117e+000  1.047e+001
 1.091e+002  5.302e+000  1.046e+001
 1.081e+002  5.462e+000  1.045e+001
 1.071e+002  5.590e+000  1.044e+001
 1.061e+002  5.698e+000  1.042e+001
 1.051e+002  5.807e+000  1.041e+001
 1.042e+002  5.934e+000  1.040e+001
 1.032e+002  6.082e+000  1.039e+001
 1.022e+002  6.238e+000  1.037e+001
 1.012e+002  6.388e+000  1.036e+001
 1.002e+002  6.521e+000  1.035e+001
 9.921e+001  6.639e+000  1.034e+001
 9.821e+001  6.745e+000  1.033e+001
 9.722e+001  6.845e+000  1.031e+001
 9.622e+001  6.940e+000  1.030e+001
 9.523e+001  7.030e+000  1.029e+001
 9.423e+001  7.114e+000  1.028e+001
 9.323e+001  7.192e+000  1.026e+001
 9.224e+001  7.264e+000  1.025e+001
 9.124e+001  7.331e+000  1.024e+001
 9.024e+001  7.393e+000  1.023e+001
 8.924e+001  7.451e+000  1.021e+001
 8.824e+001  7.505e+000  1.020e+001
 8.725e+001  7.555e+000  1.019e+001
 8.625e+001  7.602e+000  1.018e+001
 8.525e+001  7.646e+000  1.016e+001
 8.425e+001  7.688e+000  1.015e+001
 8.325e+001  7.726e+000  1.014e+001
 8.225e+001  7.761e+000  1.013e+001
 8.125e+001  7.794e+000  1.011e+001
 8.025e+001  7.824e+000  1.010e+001
 7.925e+001  7.851e+000  1.009e+001
 7.825e+001  7.876e+000  1.008e+001
 7.725e+001  7.899e+000  1.006e+001
 7.625e+001  7.919e+000  1.005e+001
 7.525e+001  7.938e+000  1.004e+001
 7.426e+001  7.955e+000  1.003e+001
 7.326e+001  7.970e+000  1.001e+001
 7.226e+001  7.982e+000  1.000e+001
 7.126e+001  7.993e+000  9.989e+000
 7.026e+001  8.003e+000  9.976e+000
 6.926e+001  8.011e+000  9.964e+000
 6.826e+001  8.017e+000  9.951e+000
 6.726e+001  8.022e+000  9.939e+000
 6.626e+001  8.027e+000  9.926e+000
 6.526e+001  8.030e+000  9.913e+000