TITLE = "NODEELEMENT"
VARIABLES = "X", "Y", "Z"
ZONE N=     200, E=     171, F=FEPOINT, ET=QUADRILATERAL
  2.209e+02   0.000e+00  -1.365e+02
  2.134e+02   0.000e+00  -1.365e+02
  2.060e+02   0.000e+00  -1.365e+02
  1.985e+02   0.000e+00  -1.365e+02
  1.911e+02   0.000e+00  -1.365e+02
  1.836e+02   0.000e+00  -1.365e+02
  1.761e+02   0.000e+00  -1.365e+02
  1.687e+02   0.000e+00  -1.365e+02
  1.612e+02   0.000e+00  -1.365e+02
  1.537e+02   0.000e+00  -1.365e+02
  1.463e+02   0.000e+00  -1.365e+02
  1.388e+02   0.000e+00  -1.365e+02
  1.314e+02   0.000e+00  -1.365e+02
  1.239e+02   0.000e+00  -1.365e+02
  1.164e+02   0.000e+00  -1.365e+02
  1.090e+02   0.000e+00  -1.365e+02
  1.015e+02   0.000e+00  -1.365e+02
  9.404e+01   0.000e+00  -1.365e+02
  8.658e+01   0.000e+00  -1.365e+02
  7.912e+01   0.000e+00  -1.365e+02
  2.738e+02   0.000e+00  -1.334e+02
  2.606e+02   1.142e+01  -1.338e+02
  2.457e+02   1.794e+01  -1.341e+02
  2.310e+02   2.202e+01  -1.344e+02
  2.168e+02   2.469e+01  -1.346e+02
  2.030e+02   2.630e+01  -1.348e+02
  1.897e+02   2.706e+01  -1.351e+02
  1.772e+02   2.712e+01  -1.353e+02
  1.656e+02   2.668e+01  -1.355e+02
  1.551e+02   2.618e+01  -1.356e+02
  1.450e+02   2.618e+01  -1.356e+02
  1.344e+02   2.667e+01  -1.355e+02
  1.228e+02   2.712e+01  -1.353e+02
  1.103e+02   2.706e+01  -1.351e+02
  9.708e+01   2.630e+01  -1.348e+02
  8.328e+01   2.469e+01  -1.346e+02
  6.901e+01   2.204e+01  -1.344e+02
  5.432e+01   1.794e+01  -1.341e+02
  3.942e+01   1.144e+01  -1.339e+02
  2.618e+01   1.428e-02  -1.334e+02
  3.266e+02   0.000e+00  -1.283e+02
  3.118e+02   1.671e+01  -1.289e+02
  2.929e+02   2.678e+01  -1.292e+02
  2.736e+02   3.362e+01  -1.294e+02
  2.545e+02   3.864e+01  -1.295e+02
  2.355e+02   4.247e+01  -1.295e+02
  2.168e+02   4.548e+01  -1.295e+02
  1.981e+02   4.793e+01  -1.294e+02
  1.793e+02   4.990e+01  -1.292e+02
  1.599e+02   5.117e+01  -1.290e+02
  1.402e+02   5.117e+01  -1.290e+02
  1.208e+02   4.990e+01  -1.292e+02
  1.020e+02   4.792e+01  -1.294e+02
  8.329e+01   4.548e+01  -1.295e+02
  6.454e+01   4.248e+01  -1.295e+02
  4.558e+01   3.864e+01  -1.295e+02
  2.640e+01   3.363e+01  -1.294e+02
  7.121e+00   2.679e+01  -1.292e+02
 -1.176e+01   1.674e+01  -1.289e+02
 -2.661e+01   2.038e-02  -1.283e+02
  3.792e+02   0.000e+00  -1.214e+02
  3.628e+02   2.199e+01  -1.220e+02
  3.399e+02   3.559e+01  -1.222e+02
  3.160e+02   4.512e+01  -1.222e+02
  2.918e+02   5.245e+01  -1.220e+02
  2.676e+02   5.844e+01  -1.216e+02
  2.433e+02   6.354e+01  -1.210e+02
  2.183e+02   6.810e+01  -1.201e+02
  1.922e+02   7.207e+01  -1.189e+02
  1.644e+02   7.466e+01  -1.180e+02
  1.356e+02   7.466e+01  -1.180e+02
  1.078e+02   7.207e+01  -1.189e+02
  8.171e+01   6.810e+01  -1.201e+02
  5.680e+01   6.354e+01  -1.210e+02
  3.242e+01   5.844e+01  -1.216e+02
  8.220e+00   5.246e+01  -1.220e+02
 -1.591e+01   4.514e+01  -1.222e+02
 -3.982e+01   3.560e+01  -1.222e+02
 -6.271e+01   2.200e+01  -1.220e+02
 -7.918e+01   2.644e-02  -1.214e+02
  4.314e+02   0.000e+00  -1.120e+02
  4.133e+02   2.722e+01  -1.126e+02
  3.864e+02   4.431e+01  -1.126e+02
  3.578e+02   5.650e+01  -1.122e+02
  3.286e+02   6.606e+01  -1.116e+02
  2.990e+02   7.401e+01  -1.105e+02
  2.688e+02   8.098e+01  -1.091e+02
  2.376e+02   8.726e+01  -1.071e+02
  2.043e+02   9.263e+01  -1.049e+02
  1.685e+02   9.600e+01  -1.032e+02
  1.315e+02   9.599e+01  -1.032e+02
  9.577e+01   9.263e+01  -1.049e+02
  6.249e+01   8.726e+01  -1.072e+02
  3.121e+01   8.097e+01  -1.091e+02
  1.065e+00   7.401e+01  -1.106e+02
 -2.851e+01   6.606e+01  -1.116e+02
 -5.771e+01   5.651e+01  -1.122e+02
 -8.633e+01   4.432e+01  -1.126e+02
 -1.133e+02   2.723e+01  -1.126e+02
 -1.314e+02   3.238e-02  -1.120e+02
  4.830e+02   0.000e+00  -9.986e+01
  4.633e+02   3.238e+01  -1.003e+02
  4.322e+02   5.288e+01  -9.995e+01
  3.987e+02   6.764e+01  -9.916e+01
  3.643e+02   7.929e+01  -9.792e+01
  3.292e+02   8.902e+01  -9.611e+01
  2.931e+02   9.748e+01  -9.363e+01
  2.553e+02   1.049e+02  -9.048e+01
  2.150e+02   1.109e+02  -8.711e+01
  1.721e+02   1.145e+02  -8.477e+01
  1.280e+02   1.145e+02  -8.477e+01
  8.507e+01   1.109e+02  -8.712e+01
  4.480e+01   1.049e+02  -9.048e+01
  6.987e+00   9.749e+01  -9.363e+01
 -2.916e+01   8.903e+01  -9.611e+01
 -6.429e+01   7.930e+01  -9.792e+01
 -9.868e+01   6.765e+01  -9.916e+01
 -1.321e+02   5.289e+01  -9.995e+01
 -1.632e+02   3.241e+01  -1.003e+02
 -1.830e+02   3.844e-02  -9.987e+01
  5.336e+02   0.000e+00  -8.421e+01
  5.122e+02   3.743e+01  -8.442e+01
  4.768e+02   6.126e+01  -8.359e+01
  4.383e+02   7.841e+01  -8.218e+01
  3.985e+02   9.192e+01  -8.016e+01
  3.575e+02   1.031e+02  -7.744e+01
  3.151e+02   1.125e+02  -7.397e+01
  2.707e+02   1.204e+02  -6.990e+01
  2.240e+02   1.262e+02  -6.593e+01
  1.750e+02   1.295e+02  -6.337e+01
  1.251e+02   1.295e+02  -6.337e+01
  7.609e+01   1.262e+02  -6.593e+01
  2.930e+01   1.204e+02  -6.990e+01
 -1.505e+01   1.125e+02  -7.397e+01
 -5.746e+01   1.031e+02  -7.744e+01
 -9.844e+01   9.193e+01  -8.017e+01
 -1.383e+02   7.843e+01  -8.219e+01
 -1.767e+02   6.128e+01  -8.360e+01
 -2.121e+02   3.746e+01  -8.443e+01
 -2.336e+02   4.421e-02  -8.421e+01
  5.824e+02   0.000e+00  -6.334e+01
  5.590e+02   4.225e+01  -6.323e+01
  5.191e+02   6.919e+01  -6.184e+01
  4.753e+02   8.847e+01  -5.976e+01
  4.296e+02   1.034e+02  -5.701e+01
  3.825e+02   1.155e+02  -5.361e+01
  3.337e+02   1.252e+02  -4.965e+01
  2.831e+02   1.326e+02  -4.546e+01
  2.308e+02   1.379e+02  -4.181e+01
  1.771e+02   1.406e+02  -3.963e+01
  1.229e+02   1.406e+02  -3.963e+01
  6.926e+01   1.379e+02  -4.181e+01
  1.693e+01   1.326e+02  -4.546e+01
 -3.362e+01   1.252e+02  -4.965e+01
 -8.240e+01   1.155e+02  -5.361e+01
 -1.296e+02   1.034e+02  -5.701e+01
 -1.753e+02   8.848e+01  -5.976e+01
 -2.191e+02   6.921e+01  -6.185e+01
 -2.590e+02   4.229e+01  -6.323e+01
 -2.824e+02   4.989e-02  -6.335e+01
  6.262e+02   0.000e+00  -3.378e+01
  6.007e+02   4.655e+01  -3.327e+01
  5.558e+02   7.606e+01  -3.151e+01
  5.062e+02   9.688e+01  -2.920e+01
  4.544e+02   1.126e+02  -2.649e+01
  4.011e+02   1.248e+02  -2.355e+01
  3.467e+02   1.340e+02  -2.054e+01
  2.912e+02   1.408e+02  -1.776e+01
  2.351e+02   1.452e+02  -1.552e+01
  1.784e+02   1.474e+02  -1.424e+01
  1.216e+02   1.474e+02  -1.424e+01
  6.497e+01   1.452e+02  -1.552e+01
  8.814e+00   1.408e+02  -1.776e+01
 -4.660e+01   1.340e+02  -2.055e+01
 -1.011e+02   1.248e+02  -2.355e+01
 -1.543e+02   1.126e+02  -2.649e+01
 -2.061e+02   9.689e+01  -2.920e+01
 -2.557e+02   7.608e+01  -3.151e+01
 -3.007e+02   4.659e+01  -3.327e+01
 -3.262e+02   5.491e-02  -3.378e+01
  6.500e+02   0.000e+00   1.193e+01
  6.227e+02   4.886e+01   1.193e+01
  5.740e+02   7.948e+01   1.193e+01
  5.204e+02   1.008e+02   1.194e+01
  4.649e+02   1.165e+02   1.194e+01
  4.085e+02   1.284e+02   1.194e+01
  3.515e+02   1.373e+02   1.195e+01
  2.941e+02   1.436e+02   1.195e+01
  2.365e+02   1.477e+02   1.195e+01
  1.789e+02   1.498e+02   1.195e+01
  1.212e+02   1.498e+02   1.195e+01
  6.351e+01   1.477e+02   1.195e+01
  5.954e+00   1.436e+02   1.195e+01
 -5.141e+01   1.373e+02   1.195e+01
 -1.084e+02   1.284e+02   1.194e+01
 -1.649e+02   1.165e+02   1.194e+01
 -2.204e+02   1.008e+02   1.194e+01
 -2.740e+02   7.950e+01   1.193e+01
 -3.227e+02   4.890e+01   1.193e+01
 -3.500e+02   5.766e-02   1.193e+01
       1        2       22       21
       2        3       23       22
       3        4       24       23
       4        5       25       24
       5        6       26       25
       6        7       27       26
       7        8       28       27
       8        9       29       28
       9       10       30       29
      10       11       31       30
      11       12       32       31
      12       13       33       32
      13       14       34       33
      14       15       35       34
      15       16       36       35
      16       17       37       36
      17       18       38       37
      18       19       39       38
      19       20       40       39
      21       22       42       41
      22       23       43       42
      23       24       44       43
      24       25       45       44
      25       26       46       45
      26       27       47       46
      27       28       48       47
      28       29       49       48
      29       30       50       49
      30       31       51       50
      31       32       52       51
      32       33       53       52
      33       34       54       53
      34       35       55       54
      35       36       56       55
      36       37       57       56
      37       38       58       57
      38       39       59       58
      39       40       60       59
      41       42       62       61
      42       43       63       62
      43       44       64       63
      44       45       65       64
      45       46       66       65
      46       47       67       66
      47       48       68       67
      48       49       69       68
      49       50       70       69
      50       51       71       70
      51       52       72       71
      52       53       73       72
      53       54       74       73
      54       55       75       74
      55       56       76       75
      56       57       77       76
      57       58       78       77
      58       59       79       78
      59       60       80       79
      61       62       82       81
      62       63       83       82
      63       64       84       83
      64       65       85       84
      65       66       86       85
      66       67       87       86
      67       68       88       87
      68       69       89       88
      69       70       90       89
      70       71       91       90
      71       72       92       91
      72       73       93       92
      73       74       94       93
      74       75       95       94
      75       76       96       95
      76       77       97       96
      77       78       98       97
      78       79       99       98
      79       80      100       99
      81       82      102      101
      82       83      103      102
      83       84      104      103
      84       85      105      104
      85       86      106      105
      86       87      107      106
      87       88      108      107
      88       89      109      108
      89       90      110      109
      90       91      111      110
      91       92      112      111
      92       93      113      112
      93       94      114      113
      94       95      115      114
      95       96      116      115
      96       97      117      116
      97       98      118      117
      98       99      119      118
      99      100      120      119
     101      102      122      121
     102      103      123      122
     103      104      124      123
     104      105      125      124
     105      106      126      125
     106      107      127      126
     107      108      128      127
     108      109      129      128
     109      110      130      129
     110      111      131      130
     111      112      132      131
     112      113      133      132
     113      114      134      133
     114      115      135      134
     115      116      136      135
     116      117      137      136
     117      118      138      137
     118      119      139      138
     119      120      140      139
     121      122      142      141
     122      123      143      142
     123      124      144      143
     124      125      145      144
     125      126      146      145
     126      127      147      146
     127      128      148      147
     128      129      149      148
     129      130      150      149
     130      131      151      150
     131      132      152      151
     132      133      153      152
     133      134      154      153
     134      135      155      154
     135      136      156      155
     136      137      157      156
     137      138      158      157
     138      139      159      158
     139      140      160      159
     141      142      162      161
     142      143      163      162
     143      144      164      163
     144      145      165      164
     145      146      166      165
     146      147      167      166
     147      148      168      167
     148      149      169      168
     149      150      170      169
     150      151      171      170
     151      152      172      171
     152      153      173      172
     153      154      174      173
     154      155      175      174
     155      156      176      175
     156      157      177      176
     157      158      178      177
     158      159      179      178
     159      160      180      179
     161      162      182      181
     162      163      183      182
     163      164      184      183
     164      165      185      184
     165      166      186      185
     166      167      187      186
     167      168      188      187
     168      169      189      188
     169      170      190      189
     170      171      191      190
     171      172      192      191
     172      173      193      192
     173      174      194      193
     174      175      195      194
     175      176      196      195
     176      177      197      196
     177      178      198      197
     178      179      199      198
     179      180      200      199
