TITLE = "NODEELEMENT"
VARIABLES = "X", "Y", "Z"
ZONE N=    1000, E=     931, F=FEPOINT, ET=QUADRILATERAL
  6.500e+02   0.000e+00   1.198e+01
  6.448e+02   2.157e+01   1.198e+01
  6.320e+02   3.984e+01   1.198e+01
  6.154e+02   5.478e+01   1.198e+01
  5.969e+02   6.728e+01   1.198e+01
  5.772e+02   7.794e+01   1.198e+01
  5.568e+02   8.720e+01   1.198e+01
  5.360e+02   9.533e+01   1.198e+01
  5.148e+02   1.026e+02   1.198e+01
  4.934e+02   1.090e+02   1.198e+01
  4.718e+02   1.148e+02   1.198e+01
  4.500e+02   1.200e+02   1.198e+01
  4.281e+02   1.247e+02   1.198e+01
  4.061e+02   1.288e+02   1.198e+01
  3.841e+02   1.325e+02   1.198e+01
  3.620e+02   1.359e+02   1.198e+01
  3.398e+02   1.388e+02   1.198e+01
  3.175e+02   1.413e+02   1.198e+01
  2.953e+02   1.435e+02   1.198e+01
  2.730e+02   1.454e+02   1.198e+01
  2.506e+02   1.469e+02   1.198e+01
  2.283e+02   1.481e+02   1.198e+01
  2.059e+02   1.490e+02   1.198e+01
  1.836e+02   1.496e+02   1.198e+01
  1.612e+02   1.500e+02   1.198e+01
  1.388e+02   1.500e+02   1.198e+01
  1.164e+02   1.496e+02   1.198e+01
  9.408e+01   1.490e+02   1.198e+01
  7.172e+01   1.481e+02   1.198e+01
  4.938e+01   1.469e+02   1.198e+01
  2.706e+01   1.454e+02   1.198e+01
  4.759e+00   1.435e+02   1.198e+01
 -1.751e+01   1.413e+02   1.198e+01
 -3.974e+01   1.388e+02   1.198e+01
 -6.193e+01   1.359e+02   1.198e+01
 -8.405e+01   1.325e+02   1.198e+01
 -1.061e+02   1.288e+02   1.198e+01
 -1.281e+02   1.247e+02   1.198e+01
 -1.500e+02   1.200e+02   1.198e+01
 -1.718e+02   1.148e+02   1.198e+01
 -1.934e+02   1.090e+02   1.198e+01
 -2.148e+02   1.026e+02   1.198e+01
 -2.360e+02   9.534e+01   1.198e+01
 -2.568e+02   8.721e+01   1.198e+01
 -2.772e+02   7.795e+01   1.198e+01
 -2.969e+02   6.729e+01   1.198e+01
 -3.154e+02   5.480e+01   1.198e+01
 -3.320e+02   3.986e+01   1.198e+01
 -3.448e+02   2.159e+01   1.198e+01
 -3.500e+02   2.237e-02   1.198e+01
  6.310e+02   0.000e+00   1.198e+01
  6.258e+02   2.049e+01   1.198e+01
  6.134e+02   3.786e+01   1.198e+01
  5.973e+02   5.209e+01   1.198e+01
  5.794e+02   6.400e+01   1.198e+01
  5.605e+02   7.417e+01   1.198e+01
  5.409e+02   8.303e+01   1.198e+01
  5.208e+02   9.082e+01   1.198e+01
  5.004e+02   9.777e+01   1.198e+01
  4.798e+02   1.039e+02   1.198e+01
  4.590e+02   1.095e+02   1.198e+01
  4.381e+02   1.145e+02   1.198e+01
  4.171e+02   1.190e+02   1.198e+01
  3.959e+02   1.230e+02   1.198e+01
  3.747e+02   1.265e+02   1.198e+01
  3.534e+02   1.297e+02   1.198e+01
  3.320e+02   1.325e+02   1.198e+01
  3.107e+02   1.349e+02   1.198e+01
  2.892e+02   1.370e+02   1.198e+01
  2.678e+02   1.388e+02   1.198e+01
  2.463e+02   1.402e+02   1.198e+01
  2.248e+02   1.414e+02   1.198e+01
  2.033e+02   1.422e+02   1.198e+01
  1.818e+02   1.428e+02   1.198e+01
  1.603e+02   1.432e+02   1.198e+01
  1.388e+02   1.432e+02   1.198e+01
  1.172e+02   1.428e+02   1.198e+01
  9.573e+01   1.422e+02   1.198e+01
  7.423e+01   1.414e+02   1.198e+01
  5.274e+01   1.403e+02   1.198e+01
  3.127e+01   1.388e+02   1.198e+01
  9.818e+00   1.370e+02   1.198e+01
 -1.160e+01   1.349e+02   1.198e+01
 -3.299e+01   1.325e+02   1.198e+01
 -5.434e+01   1.298e+02   1.198e+01
 -7.562e+01   1.266e+02   1.198e+01
 -9.685e+01   1.231e+02   1.198e+01
 -1.180e+02   1.192e+02   1.198e+01
 -1.391e+02   1.147e+02   1.198e+01
 -1.600e+02   1.098e+02   1.198e+01
 -1.808e+02   1.043e+02   1.198e+01
 -2.014e+02   9.815e+01   1.198e+01
 -2.218e+02   9.123e+01   1.198e+01
 -2.419e+02   8.345e+01   1.198e+01
 -2.615e+02   7.457e+01   1.198e+01
 -2.804e+02   6.436e+01   1.198e+01
 -2.983e+02   5.238e+01   1.198e+01
 -3.143e+02   3.808e+01   1.198e+01
 -3.267e+02   2.062e+01   1.198e+01
 -3.319e+02   2.136e-02   1.198e+01
  6.121e+02   0.000e+00   1.198e+01
  6.068e+02   1.941e+01   1.198e+01
  5.947e+02   3.588e+01   1.198e+01
  5.792e+02   4.939e+01   1.198e+01
  5.620e+02   6.072e+01   1.198e+01
  5.438e+02   7.041e+01   1.198e+01
  5.249e+02   7.886e+01   1.198e+01
  5.056e+02   8.630e+01   1.198e+01
  4.861e+02   9.295e+01   1.198e+01
  4.663e+02   9.887e+01   1.198e+01
  4.463e+02   1.042e+02   1.198e+01
  4.262e+02   1.090e+02   1.198e+01
  4.060e+02   1.133e+02   1.198e+01
  3.857e+02   1.171e+02   1.198e+01
  3.653e+02   1.205e+02   1.198e+01
  3.448e+02   1.236e+02   1.198e+01
  3.243e+02   1.262e+02   1.198e+01
  3.038e+02   1.285e+02   1.198e+01
  2.832e+02   1.305e+02   1.198e+01
  2.626e+02   1.322e+02   1.198e+01
  2.420e+02   1.336e+02   1.198e+01
  2.214e+02   1.346e+02   1.198e+01
  2.007e+02   1.354e+02   1.198e+01
  1.801e+02   1.360e+02   1.198e+01
  1.594e+02   1.363e+02   1.198e+01
  1.387e+02   1.363e+02   1.198e+01
  1.180e+02   1.360e+02   1.198e+01
  9.739e+01   1.354e+02   1.198e+01
  7.674e+01   1.346e+02   1.198e+01
  5.609e+01   1.336e+02   1.198e+01
  3.547e+01   1.322e+02   1.198e+01
  1.488e+01   1.305e+02   1.198e+01
 -5.696e+00   1.285e+02   1.198e+01
 -2.624e+01   1.263e+02   1.198e+01
 -4.674e+01   1.237e+02   1.198e+01
 -6.718e+01   1.207e+02   1.198e+01
 -8.758e+01   1.174e+02   1.198e+01
 -1.079e+02   1.136e+02   1.198e+01
 -1.281e+02   1.095e+02   1.198e+01
 -1.482e+02   1.048e+02   1.198e+01
 -1.682e+02   9.955e+01   1.198e+01
 -1.880e+02   9.371e+01   1.198e+01
 -2.076e+02   8.712e+01   1.198e+01
 -2.269e+02   7.970e+01   1.198e+01
 -2.457e+02   7.120e+01   1.198e+01
 -2.639e+02   6.143e+01   1.198e+01
 -2.811e+02   4.997e+01   1.198e+01
 -2.966e+02   3.631e+01   1.198e+01
 -3.086e+02   1.965e+01   1.198e+01
 -3.138e+02   2.035e-02   1.198e+01
  5.931e+02   0.000e+00   1.198e+01
  5.878e+02   1.833e+01   1.198e+01
  5.760e+02   3.391e+01   1.198e+01
  5.611e+02   4.669e+01   1.198e+01
  5.445e+02   5.744e+01   1.198e+01
  5.270e+02   6.665e+01   1.198e+01
  5.089e+02   7.469e+01   1.198e+01
  4.904e+02   8.179e+01   1.198e+01
  4.717e+02   8.813e+01   1.198e+01
  4.527e+02   9.379e+01   1.198e+01
  4.335e+02   9.890e+01   1.198e+01
  4.143e+02   1.035e+02   1.198e+01
  3.949e+02   1.076e+02   1.198e+01
  3.754e+02   1.113e+02   1.198e+01
  3.559e+02   1.145e+02   1.198e+01
  3.363e+02   1.175e+02   1.198e+01
  3.166e+02   1.200e+02   1.198e+01
  2.969e+02   1.221e+02   1.198e+01
  2.772e+02   1.240e+02   1.198e+01
  2.575e+02   1.256e+02   1.198e+01
  2.377e+02   1.269e+02   1.198e+01
  2.179e+02   1.279e+02   1.198e+01
  1.981e+02   1.286e+02   1.198e+01
  1.783e+02   1.292e+02   1.198e+01
  1.585e+02   1.295e+02   1.198e+01
  1.387e+02   1.295e+02   1.198e+01
  1.188e+02   1.292e+02   1.198e+01
  9.904e+01   1.286e+02   1.198e+01
  7.924e+01   1.279e+02   1.198e+01
  5.945e+01   1.269e+02   1.198e+01
  3.968e+01   1.256e+02   1.198e+01
  1.994e+01   1.240e+02   1.198e+01
  2.108e-01   1.221e+02   1.198e+01
 -1.948e+01   1.200e+02   1.198e+01
 -3.914e+01   1.176e+02   1.198e+01
 -5.874e+01   1.147e+02   1.198e+01
 -7.830e+01   1.116e+02   1.198e+01
 -9.779e+01   1.081e+02   1.198e+01
 -1.172e+02   1.042e+02   1.198e+01
 -1.365e+02   9.977e+01   1.198e+01
 -1.557e+02   9.481e+01   1.198e+01
 -1.747e+02   8.927e+01   1.198e+01
 -1.934e+02   8.300e+01   1.198e+01
 -2.119e+02   7.594e+01   1.198e+01
 -2.300e+02   6.783e+01   1.198e+01
 -2.475e+02   5.850e+01   1.198e+01
 -2.640e+02   4.756e+01   1.198e+01
 -2.788e+02   3.453e+01   1.198e+01
 -2.905e+02   1.868e+01   1.198e+01
 -2.957e+02   1.935e-02   1.198e+01
  5.741e+02   0.000e+00   1.198e+01
  5.687e+02   1.724e+01   1.198e+01
  5.574e+02   3.193e+01   1.198e+01
  5.430e+02   4.400e+01   1.198e+01
  5.271e+02   5.416e+01   1.198e+01
  5.103e+02   6.289e+01   1.198e+01
  4.930e+02   7.053e+01   1.198e+01
  4.753e+02   7.727e+01   1.198e+01
  4.573e+02   8.332e+01   1.198e+01
  4.391e+02   8.871e+01   1.198e+01
  4.208e+02   9.359e+01   1.198e+01
  4.023e+02   9.794e+01   1.198e+01
  3.838e+02   1.019e+02   1.198e+01
  3.652e+02   1.054e+02   1.198e+01
  3.465e+02   1.085e+02   1.198e+01
  3.277e+02   1.113e+02   1.198e+01
  3.089e+02   1.137e+02   1.198e+01
  2.901e+02   1.157e+02   1.198e+01
  2.712e+02   1.175e+02   1.198e+01
  2.523e+02   1.190e+02   1.198e+01
  2.334e+02   1.202e+02   1.198e+01
  2.144e+02   1.211e+02   1.198e+01
  1.955e+02   1.219e+02   1.198e+01
  1.765e+02   1.224e+02   1.198e+01
  1.576e+02   1.226e+02   1.198e+01
  1.386e+02   1.226e+02   1.198e+01
  1.196e+02   1.224e+02   1.198e+01
  1.007e+02   1.219e+02   1.198e+01
  8.175e+01   1.211e+02   1.198e+01
  6.281e+01   1.202e+02   1.198e+01
  4.389e+01   1.190e+02   1.198e+01
  2.499e+01   1.175e+02   1.198e+01
  6.118e+00   1.158e+02   1.198e+01
 -1.273e+01   1.138e+02   1.198e+01
 -3.154e+01   1.115e+02   1.198e+01
 -5.030e+01   1.088e+02   1.198e+01
 -6.902e+01   1.059e+02   1.198e+01
 -8.768e+01   1.026e+02   1.198e+01
 -1.062e+02   9.890e+01   1.198e+01
 -1.247e+02   9.475e+01   1.198e+01
 -1.431e+02   9.007e+01   1.198e+01
 -1.613e+02   8.483e+01   1.198e+01
 -1.793e+02   7.889e+01   1.198e+01
 -1.970e+02   7.219e+01   1.198e+01
 -2.143e+02   6.446e+01   1.198e+01
 -2.310e+02   5.557e+01   1.198e+01
 -2.468e+02   4.515e+01   1.198e+01
 -2.611e+02   3.276e+01   1.198e+01
 -2.723e+02   1.771e+01   1.198e+01
 -2.776e+02   1.834e-02   1.198e+01
  5.551e+02   0.000e+00   1.198e+01
  5.497e+02   1.616e+01   1.198e+01
  5.387e+02   2.995e+01   1.198e+01
  5.249e+02   4.130e+01   1.198e+01
  5.096e+02   5.089e+01   1.198e+01
  4.936e+02   5.913e+01   1.198e+01
  4.770e+02   6.636e+01   1.198e+01
  4.601e+02   7.276e+01   1.198e+01
  4.429e+02   7.850e+01   1.198e+01
  4.256e+02   8.363e+01   1.198e+01
  4.081e+02   8.829e+01   1.198e+01
  3.904e+02   9.243e+01   1.198e+01
  3.727e+02   9.620e+01   1.198e+01
  3.549e+02   9.955e+01   1.198e+01
  3.371e+02   1.025e+02   1.198e+01
  3.192e+02   1.052e+02   1.198e+01
  3.012e+02   1.074e+02   1.198e+01
  2.832e+02   1.094e+02   1.198e+01
  2.652e+02   1.110e+02   1.198e+01
  2.471e+02   1.124e+02   1.198e+01
  2.290e+02   1.135e+02   1.198e+01
  2.110e+02   1.144e+02   1.198e+01
  1.929e+02   1.151e+02   1.198e+01
  1.748e+02   1.155e+02   1.198e+01
  1.567e+02   1.158e+02   1.198e+01
  1.386e+02   1.158e+02   1.198e+01
  1.204e+02   1.155e+02   1.198e+01
  1.023e+02   1.151e+02   1.198e+01
  8.425e+01   1.144e+02   1.198e+01
  6.617e+01   1.135e+02   1.198e+01
  4.810e+01   1.124e+02   1.198e+01
  3.005e+01   1.110e+02   1.198e+01
  1.202e+01   1.094e+02   1.198e+01
 -5.977e+00   1.075e+02   1.198e+01
 -2.395e+01   1.054e+02   1.198e+01
 -4.187e+01   1.029e+02   1.198e+01
 -5.975e+01   1.002e+02   1.198e+01
 -7.757e+01   9.711e+01   1.198e+01
 -9.531e+01   9.363e+01   1.198e+01
 -1.130e+02   8.973e+01   1.198e+01
 -1.305e+02   8.533e+01   1.198e+01
 -1.479e+02   8.039e+01   1.198e+01
 -1.651e+02   7.478e+01   1.198e+01
 -1.820e+02   6.844e+01   1.198e+01
 -1.986e+02   6.109e+01   1.198e+01
 -2.146e+02   5.264e+01   1.198e+01
 -2.297e+02   4.274e+01   1.198e+01
 -2.434e+02   3.098e+01   1.198e+01
 -2.542e+02   1.674e+01   1.198e+01
 -2.594e+02   1.734e-02   1.198e+01
  5.362e+02   0.000e+00   1.198e+01
  5.307e+02   1.508e+01   1.198e+01
  5.200e+02   2.797e+01   1.198e+01
  5.068e+02   3.861e+01   1.198e+01
  4.922e+02   4.761e+01   1.198e+01
  4.769e+02   5.536e+01   1.198e+01
  4.610e+02   6.219e+01   1.198e+01
  4.449e+02   6.824e+01   1.198e+01
  4.285e+02   7.368e+01   1.198e+01
  4.120e+02   7.855e+01   1.198e+01
  3.953e+02   8.298e+01   1.198e+01
  3.785e+02   8.692e+01   1.198e+01
  3.616e+02   9.051e+01   1.198e+01
  3.447e+02   9.370e+01   1.198e+01
  3.277e+02   9.650e+01   1.198e+01
  3.106e+02   9.904e+01   1.198e+01
  2.935e+02   1.011e+02   1.198e+01
  2.763e+02   1.030e+02   1.198e+01
  2.591e+02   1.045e+02   1.198e+01
  2.419e+02   1.058e+02   1.198e+01
  2.247e+02   1.068e+02   1.198e+01
  2.075e+02   1.077e+02   1.198e+01
  1.903e+02   1.083e+02   1.198e+01
  1.730e+02   1.087e+02   1.198e+01
  1.558e+02   1.089e+02   1.198e+01
  1.385e+02   1.089e+02   1.198e+01
  1.212e+02   1.087e+02   1.198e+01
  1.040e+02   1.083e+02   1.198e+01
  8.676e+01   1.077e+02   1.198e+01
  6.953e+01   1.068e+02   1.198e+01
  5.231e+01   1.058e+02   1.198e+01
  3.511e+01   1.045e+02   1.198e+01
  1.793e+01   1.030e+02   1.198e+01
  7.761e-01   1.013e+02   1.198e+01
 -1.635e+01   9.928e+01   1.198e+01
 -3.343e+01   9.698e+01   1.198e+01
 -5.047e+01   9.446e+01   1.198e+01
 -6.746e+01   9.159e+01   1.198e+01
 -8.438e+01   8.836e+01   1.198e+01
 -1.012e+02   8.470e+01   1.198e+01
 -1.179e+02   8.059e+01   1.198e+01
 -1.345e+02   7.595e+01   1.198e+01
 -1.509e+02   7.067e+01   1.198e+01
 -1.671e+02   6.468e+01   1.198e+01
 -1.829e+02   5.772e+01   1.198e+01
 -1.981e+02   4.972e+01   1.198e+01
 -2.126e+02   4.032e+01   1.198e+01
 -2.257e+02   2.920e+01   1.198e+01
 -2.361e+02   1.576e+01   1.198e+01
 -2.413e+02   1.633e-02   1.198e+01
  5.172e+02   0.000e+00   1.198e+01
  5.117e+02   1.400e+01   1.198e+01
  5.014e+02   2.599e+01   1.198e+01
  4.887e+02   3.591e+01   1.198e+01
  4.748e+02   4.433e+01   1.198e+01
  4.601e+02   5.160e+01   1.198e+01
  4.451e+02   5.802e+01   1.198e+01
  4.297e+02   6.373e+01   1.198e+01
  4.141e+02   6.886e+01   1.198e+01
  3.984e+02   7.347e+01   1.198e+01
  3.826e+02   7.767e+01   1.198e+01
  3.666e+02   8.141e+01   1.198e+01
  3.506e+02   8.482e+01   1.198e+01
  3.344e+02   8.784e+01   1.198e+01
  3.183e+02   9.050e+01   1.198e+01
  3.020e+02   9.290e+01   1.198e+01
  2.858e+02   9.488e+01   1.198e+01
  2.695e+02   9.659e+01   1.198e+01
  2.531e+02   9.799e+01   1.198e+01
  2.368e+02   9.917e+01   1.198e+01
  2.204e+02   1.002e+02   1.198e+01
  2.040e+02   1.009e+02   1.198e+01
  1.876e+02   1.015e+02   1.198e+01
  1.712e+02   1.019e+02   1.198e+01
  1.548e+02   1.021e+02   1.198e+01
  1.384e+02   1.021e+02   1.198e+01
  1.220e+02   1.019e+02   1.198e+01
  1.057e+02   1.015e+02   1.198e+01
  8.926e+01   1.009e+02   1.198e+01
  7.288e+01   1.002e+02   1.198e+01
  5.652e+01   9.917e+01   1.198e+01
  4.017e+01   9.799e+01   1.198e+01
  2.384e+01   9.660e+01   1.198e+01
  7.529e+00   9.501e+01   1.198e+01
 -8.752e+00   9.318e+01   1.198e+01
 -2.499e+01   9.106e+01   1.198e+01
 -4.120e+01   8.873e+01   1.198e+01
 -5.735e+01   8.608e+01   1.198e+01
 -7.344e+01   8.309e+01   1.198e+01
 -8.945e+01   7.968e+01   1.198e+01
 -1.054e+02   7.584e+01   1.198e+01
 -1.211e+02   7.151e+01   1.198e+01
 -1.368e+02   6.656e+01   1.198e+01
 -1.521e+02   6.093e+01   1.198e+01
 -1.671e+02   5.435e+01   1.198e+01
 -1.817e+02   4.679e+01   1.198e+01
 -1.954e+02   3.791e+01   1.198e+01
 -2.079e+02   2.743e+01   1.198e+01
 -2.180e+02   1.479e+01   1.198e+01
 -2.232e+02   1.533e-02   1.198e+01
  4.982e+02   0.000e+00   1.198e+01
  4.927e+02   1.291e+01   1.198e+01
  4.827e+02   2.401e+01   1.198e+01
  4.706e+02   3.321e+01   1.198e+01
  4.573e+02   4.105e+01   1.198e+01
  4.434e+02   4.784e+01   1.198e+01
  4.291e+02   5.386e+01   1.198e+01
  4.145e+02   5.921e+01   1.198e+01
  3.998e+02   6.405e+01   1.198e+01
  3.848e+02   6.839e+01   1.198e+01
  3.698e+02   7.236e+01   1.198e+01
  3.547e+02   7.589e+01   1.198e+01
  3.395e+02   7.913e+01   1.198e+01
  3.242e+02   8.199e+01   1.198e+01
  3.089e+02   8.450e+01   1.198e+01
  2.935e+02   8.677e+01   1.198e+01
  2.780e+02   8.861e+01   1.198e+01
  2.626e+02   9.021e+01   1.198e+01
  2.471e+02   9.149e+01   1.198e+01
  2.316e+02   9.257e+01   1.198e+01
  2.161e+02   9.349e+01   1.198e+01
  2.006e+02   9.417e+01   1.198e+01
  1.850e+02   9.470e+01   1.198e+01
  1.695e+02   9.506e+01   1.198e+01
  1.539e+02   9.526e+01   1.198e+01
  1.384e+02   9.526e+01   1.198e+01
  1.228e+02   9.506e+01   1.198e+01
  1.073e+02   9.470e+01   1.198e+01
  9.177e+01   9.417e+01   1.198e+01
  7.624e+01   9.349e+01   1.198e+01
  6.073e+01   9.258e+01   1.198e+01
  4.523e+01   9.149e+01   1.198e+01
  2.975e+01   9.022e+01   1.198e+01
  1.428e+01   8.876e+01   1.198e+01
 -1.155e+00   8.708e+01   1.198e+01
 -1.655e+01   8.513e+01   1.198e+01
 -3.192e+01   8.300e+01   1.198e+01
 -4.724e+01   8.057e+01   1.198e+01
 -6.250e+01   7.781e+01   1.198e+01
 -7.769e+01   7.466e+01   1.198e+01
 -9.279e+01   7.110e+01   1.198e+01
 -1.078e+02   6.707e+01   1.198e+01
 -1.226e+02   6.245e+01   1.198e+01
 -1.372e+02   5.717e+01   1.198e+01
 -1.514e+02   5.098e+01   1.198e+01
 -1.652e+02   4.386e+01   1.198e+01
 -1.783e+02   3.550e+01   1.198e+01
 -1.902e+02   2.565e+01   1.198e+01
 -1.999e+02   1.382e+01   1.198e+01
 -2.051e+02   1.432e-02   1.198e+01
  4.792e+02   0.000e+00   1.198e+01
  4.736e+02   1.183e+01   1.198e+01
  4.641e+02   2.203e+01   1.198e+01
  4.525e+02   3.052e+01   1.198e+01
  4.399e+02   3.777e+01   1.198e+01
  4.267e+02   4.408e+01   1.198e+01
  4.131e+02   4.969e+01   1.198e+01
  3.994e+02   5.470e+01   1.198e+01
  3.854e+02   5.923e+01   1.198e+01
  3.713e+02   6.331e+01   1.198e+01
  3.571e+02   6.706e+01   1.198e+01
  3.428e+02   7.038e+01   1.198e+01
  3.284e+02   7.343e+01   1.198e+01
  3.139e+02   7.613e+01   1.198e+01
  2.994e+02   7.850e+01   1.198e+01
  2.849e+02   8.063e+01   1.198e+01
  2.703e+02   8.234e+01   1.198e+01
  2.557e+02   8.382e+01   1.198e+01
  2.411e+02   8.499e+01   1.198e+01
  2.264e+02   8.598e+01   1.198e+01
  2.118e+02   8.681e+01   1.198e+01
  1.971e+02   8.743e+01   1.198e+01
  1.824e+02   8.791e+01   1.198e+01
  1.677e+02   8.824e+01   1.198e+01
  1.530e+02   8.842e+01   1.198e+01
  1.383e+02   8.842e+01   1.198e+01
  1.236e+02   8.824e+01   1.198e+01
  1.090e+02   8.791e+01   1.198e+01
  9.428e+01   8.743e+01   1.198e+01
  7.960e+01   8.681e+01   1.198e+01
  6.494e+01   8.598e+01   1.198e+01
  5.029e+01   8.499e+01   1.198e+01
  3.565e+01   8.384e+01   1.198e+01
  2.104e+01   8.250e+01   1.198e+01
  6.442e+00   8.099e+01   1.198e+01
 -8.116e+00   7.921e+01   1.198e+01
 -2.265e+01   7.727e+01   1.198e+01
 -3.713e+01   7.505e+01   1.198e+01
 -5.157e+01   7.254e+01   1.198e+01
 -6.593e+01   6.964e+01   1.198e+01
 -8.021e+01   6.636e+01   1.198e+01
 -9.439e+01   6.262e+01   1.198e+01
 -1.084e+02   5.834e+01   1.198e+01
 -1.222e+02   5.342e+01   1.198e+01
 -1.357e+02   4.761e+01   1.198e+01
 -1.488e+02   4.093e+01   1.198e+01
 -1.611e+02   3.309e+01   1.198e+01
 -1.725e+02   2.388e+01   1.198e+01
 -1.818e+02   1.285e+01   1.198e+01
 -1.870e+02   1.332e-02   1.198e+01
  4.603e+02   0.000e+00   1.198e+01
  4.546e+02   1.075e+01   1.198e+01
  4.454e+02   2.005e+01   1.198e+01
  4.344e+02   2.782e+01   1.198e+01
  4.224e+02   3.449e+01   1.198e+01
  4.100e+02   4.032e+01   1.198e+01
  3.972e+02   4.552e+01   1.198e+01
  3.842e+02   5.018e+01   1.198e+01
  3.710e+02   5.441e+01   1.198e+01
  3.577e+02   5.823e+01   1.198e+01
  3.443e+02   6.175e+01   1.198e+01
  3.308e+02   6.487e+01   1.198e+01
  3.173e+02   6.774e+01   1.198e+01
  3.037e+02   7.028e+01   1.198e+01
  2.900e+02   7.250e+01   1.198e+01
  2.764e+02   7.449e+01   1.198e+01
  2.626e+02   7.607e+01   1.198e+01
  2.488e+02   7.743e+01   1.198e+01
  2.351e+02   7.849e+01   1.198e+01
  2.213e+02   7.938e+01   1.198e+01
  2.074e+02   8.012e+01   1.198e+01
  1.936e+02   8.069e+01   1.198e+01
  1.798e+02   8.111e+01   1.198e+01
  1.660e+02   8.141e+01   1.198e+01
  1.521e+02   8.158e+01   1.198e+01
  1.383e+02   8.158e+01   1.198e+01
  1.244e+02   8.141e+01   1.198e+01
  1.106e+02   8.111e+01   1.198e+01
  9.678e+01   8.069e+01   1.198e+01
  8.296e+01   8.013e+01   1.198e+01
  6.915e+01   7.938e+01   1.198e+01
  5.535e+01   7.849e+01   1.198e+01
  4.156e+01   7.745e+01   1.198e+01
  2.779e+01   7.625e+01   1.198e+01
  1.404e+01   7.489e+01   1.198e+01
  3.218e-01   7.329e+01   1.198e+01
 -1.337e+01   7.154e+01   1.198e+01
 -2.703e+01   6.954e+01   1.198e+01
 -4.063e+01   6.727e+01   1.198e+01
 -5.417e+01   6.462e+01   1.198e+01
 -6.764e+01   6.162e+01   1.198e+01
 -8.100e+01   5.818e+01   1.198e+01
 -9.423e+01   5.422e+01   1.198e+01
 -1.073e+02   4.967e+01   1.198e+01
 -1.200e+02   4.424e+01   1.198e+01
 -1.323e+02   3.800e+01   1.198e+01
 -1.440e+02   3.068e+01   1.198e+01
 -1.547e+02   2.210e+01   1.198e+01
 -1.636e+02   1.188e+01   1.198e+01
 -1.689e+02   1.231e-02   1.198e+01
  4.413e+02   0.000e+00   1.198e+01
  4.356e+02   9.665e+00   1.198e+01
  4.267e+02   1.807e+01   1.198e+01
  4.162e+02   2.513e+01   1.198e+01
  4.050e+02   3.121e+01   1.198e+01
  3.932e+02   3.656e+01   1.198e+01
  3.812e+02   4.135e+01   1.198e+01
  3.690e+02   4.567e+01   1.198e+01
  3.566e+02   4.959e+01   1.198e+01
  3.441e+02   5.315e+01   1.198e+01
  3.316e+02   5.644e+01   1.198e+01
  3.189e+02   5.936e+01   1.198e+01
  3.062e+02   6.205e+01   1.198e+01
  2.935e+02   6.443e+01   1.198e+01
  2.806e+02   6.650e+01   1.198e+01
  2.678e+02   6.835e+01   1.198e+01
  2.549e+02   6.980e+01   1.198e+01
  2.420e+02   7.105e+01   1.198e+01
  2.290e+02   7.199e+01   1.198e+01
  2.161e+02   7.278e+01   1.198e+01
  2.031e+02   7.344e+01   1.198e+01
  1.902e+02   7.394e+01   1.198e+01
  1.772e+02   7.432e+01   1.198e+01
  1.642e+02   7.459e+01   1.198e+01
  1.512e+02   7.474e+01   1.198e+01
  1.382e+02   7.474e+01   1.198e+01
  1.252e+02   7.459e+01   1.198e+01
  1.123e+02   7.432e+01   1.198e+01
  9.929e+01   7.394e+01   1.198e+01
  8.632e+01   7.345e+01   1.198e+01
  7.336e+01   7.278e+01   1.198e+01
  6.041e+01   7.199e+01   1.198e+01
  4.747e+01   7.107e+01   1.198e+01
  3.454e+01   7.000e+01   1.198e+01
  2.164e+01   6.879e+01   1.198e+01
  8.759e+00   6.737e+01   1.198e+01
 -4.097e+00   6.581e+01   1.198e+01
 -1.692e+01   6.403e+01   1.198e+01
 -2.969e+01   6.199e+01   1.198e+01
 -4.241e+01   5.960e+01   1.198e+01
 -5.507e+01   5.688e+01   1.198e+01
 -6.762e+01   5.374e+01   1.198e+01
 -8.005e+01   5.011e+01   1.198e+01
 -9.230e+01   4.591e+01   1.198e+01
 -1.042e+02   4.086e+01   1.198e+01
 -1.158e+02   3.507e+01   1.198e+01
 -1.269e+02   2.826e+01   1.198e+01
 -1.370e+02   2.032e+01   1.198e+01
 -1.455e+02   1.091e+01   1.198e+01
 -1.508e+02   1.130e-02   1.198e+01
  4.223e+02   0.000e+00   1.198e+01
  4.166e+02   8.583e+00   1.198e+01
  4.081e+02   1.609e+01   1.198e+01
  3.981e+02   2.243e+01   1.198e+01
  3.875e+02   2.793e+01   1.198e+01
  3.765e+02   3.279e+01   1.198e+01
  3.652e+02   3.718e+01   1.198e+01
  3.538e+02   4.115e+01   1.198e+01
  3.422e+02   4.478e+01   1.198e+01
  3.306e+02   4.807e+01   1.198e+01
  3.188e+02   5.114e+01   1.198e+01
  3.070e+02   5.385e+01   1.198e+01
  2.951e+02   5.635e+01   1.198e+01
  2.832e+02   5.857e+01   1.198e+01
  2.712e+02   6.050e+01   1.198e+01
  2.592e+02   6.222e+01   1.198e+01
  2.472e+02   6.354e+01   1.198e+01
  2.351e+02   6.466e+01   1.198e+01
  2.230e+02   6.549e+01   1.198e+01
  2.109e+02   6.618e+01   1.198e+01
  1.988e+02   6.676e+01   1.198e+01
  1.867e+02   6.720e+01   1.198e+01
  1.746e+02   6.753e+01   1.198e+01
  1.624e+02   6.777e+01   1.198e+01
  1.503e+02   6.789e+01   1.198e+01
  1.382e+02   6.789e+01   1.198e+01
  1.260e+02   6.777e+01   1.198e+01
  1.139e+02   6.753e+01   1.198e+01
  1.018e+02   6.720e+01   1.198e+01
  8.968e+01   6.676e+01   1.198e+01
  7.757e+01   6.618e+01   1.198e+01
  6.546e+01   6.549e+01   1.198e+01
  5.337e+01   6.469e+01   1.198e+01
  4.130e+01   6.375e+01   1.198e+01
  2.923e+01   6.269e+01   1.198e+01
  1.720e+01   6.145e+01   1.198e+01
  5.179e+00   6.009e+01   1.198e+01
 -6.808e+00   5.851e+01   1.198e+01
 -1.876e+01   5.672e+01   1.198e+01
 -3.066e+01   5.458e+01   1.198e+01
 -4.249e+01   5.214e+01   1.198e+01
 -5.424e+01   4.930e+01   1.198e+01
 -6.588e+01   4.600e+01   1.198e+01
 -7.735e+01   4.216e+01   1.198e+01
 -8.853e+01   3.749e+01   1.198e+01
 -9.939e+01   3.214e+01   1.198e+01
 -1.097e+02   2.585e+01   1.198e+01
 -1.193e+02   1.855e+01   1.198e+01
 -1.274e+02   9.935e+00   1.198e+01
 -1.327e+02   1.030e-02   1.198e+01
  4.033e+02   0.000e+00   1.198e+01
  3.976e+02   7.500e+00   1.198e+01
  3.894e+02   1.411e+01   1.198e+01
  3.800e+02   1.973e+01   1.198e+01
  3.701e+02   2.465e+01   1.198e+01
  3.598e+02   2.903e+01   1.198e+01
  3.493e+02   3.302e+01   1.198e+01
  3.386e+02   3.664e+01   1.198e+01
  3.279e+02   3.996e+01   1.198e+01
  3.170e+02   4.299e+01   1.198e+01
  3.061e+02   4.583e+01   1.198e+01
  2.951e+02   4.833e+01   1.198e+01
  2.841e+02   5.066e+01   1.198e+01
  2.730e+02   5.272e+01   1.198e+01
  2.618e+02   5.450e+01   1.198e+01
  2.507e+02   5.608e+01   1.198e+01
  2.395e+02   5.727e+01   1.198e+01
  2.282e+02   5.828e+01   1.198e+01
  2.170e+02   5.899e+01   1.198e+01
  2.057e+02   5.959e+01   1.198e+01
  1.945e+02   6.008e+01   1.198e+01
  1.832e+02   6.046e+01   1.198e+01
  1.719e+02   6.074e+01   1.198e+01
  1.607e+02   6.094e+01   1.198e+01
  1.494e+02   6.105e+01   1.198e+01
  1.381e+02   6.105e+01   1.198e+01
  1.268e+02   6.094e+01   1.198e+01
  1.156e+02   6.074e+01   1.198e+01
  1.043e+02   6.046e+01   1.198e+01
  9.303e+01   6.008e+01   1.198e+01
  8.177e+01   5.959e+01   1.198e+01
  7.052e+01   5.899e+01   1.198e+01
  5.928e+01   5.830e+01   1.198e+01
  4.805e+01   5.750e+01   1.198e+01
  3.683e+01   5.659e+01   1.198e+01
  2.563e+01   5.553e+01   1.198e+01
  1.445e+01   5.436e+01   1.198e+01
  3.300e+00   5.300e+01   1.198e+01
 -7.819e+00   5.145e+01   1.198e+01
 -1.890e+01   4.956e+01   1.198e+01
 -2.992e+01   4.740e+01   1.198e+01
 -4.086e+01   4.486e+01   1.198e+01
 -5.170e+01   4.189e+01   1.198e+01
 -6.239e+01   3.840e+01   1.198e+01
 -7.281e+01   3.412e+01   1.198e+01
 -8.293e+01   2.921e+01   1.198e+01
 -9.258e+01   2.344e+01   1.198e+01
 -1.016e+02   1.677e+01   1.198e+01
 -1.093e+02   8.963e+00   1.198e+01
 -1.145e+02   9.294e-03   1.198e+01
  3.844e+02   0.000e+00   1.198e+01
  3.785e+02   6.418e+00   1.198e+01
  3.707e+02   1.213e+01   1.198e+01
  3.619e+02   1.704e+01   1.198e+01
  3.526e+02   2.137e+01   1.198e+01
  3.431e+02   2.527e+01   1.198e+01
  3.333e+02   2.885e+01   1.198e+01
  3.234e+02   3.212e+01   1.198e+01
  3.135e+02   3.514e+01   1.198e+01
  3.034e+02   3.791e+01   1.198e+01
  2.933e+02   4.052e+01   1.198e+01
  2.832e+02   4.282e+01   1.198e+01
  2.730e+02   4.497e+01   1.198e+01
  2.627e+02   4.686e+01   1.198e+01
  2.524e+02   4.850e+01   1.198e+01
  2.421e+02   4.994e+01   1.198e+01
  2.317e+02   5.100e+01   1.198e+01
  2.214e+02   5.189e+01   1.198e+01
  2.110e+02   5.250e+01   1.198e+01
  2.006e+02   5.299e+01   1.198e+01
  1.902e+02   5.340e+01   1.198e+01
  1.798e+02   5.371e+01   1.198e+01
  1.693e+02   5.395e+01   1.198e+01
  1.589e+02   5.412e+01   1.198e+01
  1.485e+02   5.421e+01   1.198e+01
  1.381e+02   5.421e+01   1.198e+01
  1.276e+02   5.412e+01   1.198e+01
  1.172e+02   5.395e+01   1.198e+01
  1.068e+02   5.371e+01   1.198e+01
  9.639e+01   5.340e+01   1.198e+01
  8.598e+01   5.299e+01   1.198e+01
  7.558e+01   5.250e+01   1.198e+01
  6.519e+01   5.192e+01   1.198e+01
  5.480e+01   5.125e+01   1.198e+01
  4.443e+01   5.049e+01   1.198e+01
  3.407e+01   4.961e+01   1.198e+01
  2.373e+01   4.863e+01   1.198e+01
  1.341e+01   4.749e+01   1.198e+01
  3.118e+00   4.617e+01   1.198e+01
 -7.137e+00   4.454e+01   1.198e+01
 -1.734e+01   4.266e+01   1.198e+01
 -2.748e+01   4.042e+01   1.198e+01
 -3.753e+01   3.778e+01   1.198e+01
 -4.744e+01   3.465e+01   1.198e+01
 -5.709e+01   3.075e+01   1.198e+01
 -6.648e+01   2.628e+01   1.198e+01
 -7.544e+01   2.103e+01   1.198e+01
 -8.383e+01   1.499e+01   1.198e+01
 -9.117e+01   7.991e+00   1.198e+01
 -9.643e+01   8.288e-03   1.198e+01
  3.654e+02   0.000e+00   1.198e+01
  3.595e+02   5.335e+00   1.198e+01
  3.521e+02   1.015e+01   1.198e+01
  3.438e+02   1.434e+01   1.198e+01
  3.352e+02   1.810e+01   1.198e+01
  3.263e+02   2.151e+01   1.198e+01
  3.173e+02   2.468e+01   1.198e+01
  3.083e+02   2.761e+01   1.198e+01
  2.991e+02   3.032e+01   1.198e+01
  2.899e+02   3.283e+01   1.198e+01
  2.806e+02   3.521e+01   1.198e+01
  2.713e+02   3.731e+01   1.198e+01
  2.619e+02   3.927e+01   1.198e+01
  2.525e+02   4.101e+01   1.198e+01
  2.430e+02   4.250e+01   1.198e+01
  2.336e+02   4.380e+01   1.198e+01
  2.240e+02   4.473e+01   1.198e+01
  2.145e+02   4.551e+01   1.198e+01
  2.050e+02   4.600e+01   1.198e+01
  1.954e+02   4.639e+01   1.198e+01
  1.858e+02   4.672e+01   1.198e+01
  1.763e+02   4.697e+01   1.198e+01
  1.667e+02   4.716e+01   1.198e+01
  1.572e+02   4.729e+01   1.198e+01
  1.476e+02   4.737e+01   1.198e+01
  1.380e+02   4.737e+01   1.198e+01
  1.284e+02   4.729e+01   1.198e+01
  1.189e+02   4.716e+01   1.198e+01
  1.093e+02   4.697e+01   1.198e+01
  9.975e+01   4.672e+01   1.198e+01
  9.019e+01   4.639e+01   1.198e+01
  8.064e+01   4.600e+01   1.198e+01
  7.109e+01   4.553e+01   1.198e+01
  6.155e+01   4.500e+01   1.198e+01
  5.203e+01   4.439e+01   1.198e+01
  4.251e+01   4.369e+01   1.198e+01
  3.300e+01   4.290e+01   1.198e+01
  2.352e+01   4.197e+01   1.198e+01
  1.405e+01   4.090e+01   1.198e+01
  4.622e+00   3.952e+01   1.198e+01
 -4.771e+00   3.792e+01   1.198e+01
 -1.410e+01   3.598e+01   1.198e+01
 -2.335e+01   3.367e+01   1.198e+01
 -3.248e+01   3.090e+01   1.198e+01
 -4.136e+01   2.738e+01   1.198e+01
 -5.002e+01   2.335e+01   1.198e+01
 -5.830e+01   1.862e+01   1.198e+01
 -6.611e+01   1.322e+01   1.198e+01
 -7.305e+01   7.020e+00   1.198e+01
 -7.832e+01   7.283e-03   1.198e+01
  3.464e+02   0.000e+00   1.198e+01
  3.405e+02   4.252e+00   1.198e+01
  3.334e+02   8.170e+00   1.198e+01
  3.257e+02   1.164e+01   1.198e+01
  3.177e+02   1.482e+01   1.198e+01
  3.096e+02   1.775e+01   1.198e+01
  3.014e+02   2.051e+01   1.198e+01
  2.931e+02   2.309e+01   1.198e+01
  2.847e+02   2.551e+01   1.198e+01
  2.763e+02   2.775e+01   1.198e+01
  2.678e+02   2.991e+01   1.198e+01
  2.593e+02   3.180e+01   1.198e+01
  2.508e+02   3.358e+01   1.198e+01
  2.422e+02   3.516e+01   1.198e+01
  2.336e+02   3.650e+01   1.198e+01
  2.250e+02   3.767e+01   1.198e+01
  2.163e+02   3.846e+01   1.198e+01
  2.076e+02   3.912e+01   1.198e+01
  1.989e+02   3.950e+01   1.198e+01
  1.902e+02   3.979e+01   1.198e+01
  1.815e+02   4.004e+01   1.198e+01
  1.728e+02   4.023e+01   1.198e+01
  1.641e+02   4.037e+01   1.198e+01
  1.554e+02   4.047e+01   1.198e+01
  1.467e+02   4.053e+01   1.198e+01
  1.380e+02   4.053e+01   1.198e+01
  1.292e+02   4.047e+01   1.198e+01
  1.205e+02   4.037e+01   1.198e+01
  1.118e+02   4.023e+01   1.198e+01
  1.031e+02   4.004e+01   1.198e+01